<?xml version="1.0"?>
<VTKFile type="UnstructuredGrid" version="0.1" byte_order="BigEndian">
<UnstructuredGrid GhostLevel="0">
<Piece NumberOfPoints="1344" NumberOfCells="732" ><Points>
<DataArray type="Float32" NumberOfComponents="3" format="ascii">
0	10	1	0	9	1	1	10	1	1	9	1	0	10	0.666667	0	9	0.666667	1	10	0.666667	1	9	0.666667	2	10	1	2	9	1	2	10	0.666667	2	9	0.666667	3	10	1	3	9	1	3	10	0.666667	3	9	0.666667	4	10	1	4	9	1	4	10	0.666667	4	9	0.666667	5	10	1	5	9	1	5	10	0.666667	5	9	0.666667	6	10	1	6	9	1	6	10	0.666667	6	9	0.666667	7	10	1	7	9	1	7	10	0.666667	7	9	0.666667	8	10	1	8	9	1	8	10	0.666667	8	9	0.666667	9	10	1	9	9	1	9	10	0.666667	9	9	0.666667	10	10	1	10	9	1	10	10	0.666667	10	9	0.666667	0	8	1	1	8	1	0	8	0.666667	1	8	0.666667	2	8	1	2	8	0.666667	3	8	1	3	8	0.666667	4	8	1	4	8	0.666667	5	8	1	5	8	0.666667	6	8	1	6	8	0.666667	7	8	1	7	8	0.666667	8	8	1	8	8	0.666667	9	8	1	9	8	0.666667	10	8	1	10	8	0.666667	0	7	1	1	7	1	0	7	0.666667	1	7	0.666667	2	7	1	2	7	0.666667	3	7	1	3	7	0.666667	4	7	1	4	7	0.666667	5	7	1	5	7	0.666667	6	7	1	6	7	0.666667	7	7	1	7	7	0.666667	8	7	1	8	7	0.666667	9	7	1	9	7	0.666667	10	7	1	10	7	0.666667	0	6	1	1	6	1	0	6	0.666667	1	6	0.666667	2	6	1	2	6	0.666667	3	6	1	3	6	0.666667	7	6	1	8	6	1	7	6	0.666667	8	6	0.666667	9	6	1	9	6	0.666667	10	6	1	10	6	0.666667	0	5	1	1	5	1	0	5	0.666667	1	5	0.666667	2	5	1	2	5	0.666667	3	5	1	3	5	0.666667	7	5	1	8	5	1	7	5	0.666667	8	5	0.666667	9	5	1	9	5	0.666667	10	5	1	10	5	0.666667	0	4	1	1	4	1	0	4	0.666667	1	4	0.666667	2	4	1	2	4	0.666667	3	4	1	3	4	0.666667	7	4	1	8	4	1	7	4	0.666667	8	4	0.666667	9	4	1	9	4	0.666667	10	4	1	10	4	0.666667	0	3	1	1	3	1	0	3	0.666667	1	3	0.666667	2	3	1	2	3	0.666667	3	3	1	3	3	0.666667	7	3	1	8	3	1	7	3	0.666667	8	3	0.666667	9	3	1	9	3	0.666667	10	3	1	10	3	0.666667	0	2	1	1	2	1	0	2	0.666667	1	2	0.666667	2	2	1	2	2	0.666667	3	2	1	3	2	0.666667	4	3	1	4	2	1	4	3	0.666667	4	2	0.666667	5	3	1	5	2	1	5	3	0.666667	5	2	0.666667	6	3	1	6	2	1	6	3	0.666667	6	2	0.666667	7	2	1	7	2	0.666667	8	2	1	8	2	0.666667	9	2	1	9	2	0.666667	10	2	1	10	2	0.666667	0	1	1	1	1	1	0	1	0.666667	1	1	0.666667	2	1	1	2	1	0.666667	3	1	1	3	1	0.666667	4	1	1	4	1	0.666667	5	1	1	5	1	0.666667	6	1	1	6	1	0.666667	7	1	1	7	1	0.666667	8	1	1	8	1	0.666667	9	1	1	9	1	0.666667	10	1	1	10	1	0.666667	0	0	1	1	0	1	0	0	0.666667	1	0	0.666667	2	0	1	2	0	0.666667	3	0	1	3	0	0.666667	4	0	1	4	0	0.666667	5	0	1	5	0	0.666667	6	0	1	6	0	0.666667	7	0	1	7	0	0.666667	8	0	1	8	0	0.666667	9	0	1	9	0	0.666667	10	0	1	10	0	0.666667	0	10	0.333333	0	9	0.333333	1	10	0.333333	1	9	0.333333	2	10	0.333333	2	9	0.333333	3	10	0.333333	3	9	0.333333	4	10	0.333333	4	9	0.333333	5	10	0.333333	5	9	0.333333	6	10	0.333333	6	9	0.333333	7	10	0.333333	7	9	0.333333	8	10	0.333333	8	9	0.333333	9	10	0.333333	9	9	0.333333	10	10	0.333333	10	9	0.333333	0	8	0.333333	1	8	0.333333	2	8	0.333333	3	8	0.333333	4	8	0.333333	5	8	0.333333	6	8	0.333333	7	8	0.333333	8	8	0.333333	9	8	0.333333	10	8	0.333333	0	7	0.333333	1	7	0.333333	2	7	0.333333	3	7	0.333333	4	7	0.333333	5	7	0.333333	6	7	0.333333	7	7	0.333333	8	7	0.333333	9	7	0.333333	10	7	0.333333	0	6	0.333333	1	6	0.333333	2	6	0.333333	3	6	0.333333	4	6	0.666667	4	6	0.333333	6	6	0.666667	6	6	0.333333	7	6	0.333333	8	6	0.333333	9	6	0.333333	10	6	0.333333	0	5	0.333333	1	5	0.333333	2	5	0.333333	3	5	0.333333	7	5	0.333333	8	5	0.333333	9	5	0.333333	10	5	0.333333	0	4	0.333333	1	4	0.333333	2	4	0.333333	3	4	0.333333	7	4	0.333333	8	4	0.333333	9	4	0.333333	10	4	0.333333	0	3	0.333333	1	3	0.333333	2	3	0.333333	3	3	0.333333	4	4	0.666667	4	4	0.333333	4	3	0.333333	6	4	0.666667	6	4	0.333333	6	3	0.333333	7	3	0.333333	8	3	0.333333	9	3	0.333333	10	3	0.333333	0	2	0.333333	1	2	0.333333	2	2	0.333333	3	2	0.333333	4	2	0.333333	5	3	0.333333	5	2	0.333333	6	2	0.333333	7	2	0.333333	8	2	0.333333	9	2	0.333333	10	2	0.333333	0	1	0.333333	1	1	0.333333	2	1	0.333333	3	1	0.333333	4	1	0.333333	5	1	0.333333	6	1	0.333333	7	1	0.333333	8	1	0.333333	9	1	0.333333	10	1	0.333333	0	0	0.333333	1	0	0.333333	2	0	0.333333	3	0	0.333333	4	0	0.333333	5	0	0.333333	6	0	0.333333	7	0	0.333333	8	0	0.333333	9	0	0.333333	10	0	0.333333	0	10	0	0	9	0	1	10	0	1	9	0	2	10	0	2	9	0	3	10	0	3	9	0	4	10	0	4	9	0	5	10	0	5	9	0	6	10	0	6	9	0	7	10	0	7	9	0	8	10	0	8	9	0	9	10	0	9	9	0	10	10	0	10	9	0	0	8	0	1	8	0	2	8	0	3	8	0	4	8	0	5	8	0	6	8	0	7	8	0	8	8	0	9	8	0	10	8	0	0	7	0	1	7	0	2	7	0	3	7	0	4	7	0	5	7	0	6	7	0	7	7	0	8	7	0	9	7	0	10	7	0	0	6	0	1	6	0	2	6	0	3	6	0	4	6	0	5	6	0.333333	5	6	0	6	6	0	7	6	0	8	6	0	9	6	0	10	6	0	0	5	0	1	5	0	2	5	0	3	5	0	4	5	0.333333	4	5	0	6	5	0.333333	6	5	0	7	5	0	8	5	0	9	5	0	10	5	0	0	4	0	1	4	0	2	4	0	3	4	0	4	4	0	6	4	0	7	4	0	8	4	0	9	4	0	10	4	0	0	3	0	1	3	0	2	3	0	3	3	0	4	3	0	5	4	0.333333	5	4	0	5	3	0	6	3	0	7	3	0	8	3	0	9	3	0	10	3	0	0	2	0	1	2	0	2	2	0	3	2	0	4	2	0	5	2	0	6	2	0	7	2	0	8	2	0	9	2	0	10	2	0	0	1	0	1	1	0	2	1	0	3	1	0	4	1	0	5	1	0	6	1	0	7	1	0	8	1	0	9	1	0	10	1	0	0	0	0	1	0	0	2	0	0	3	0	0	4	0	0	5	0	0	6	0	0	7	0	0	8	0	0	9	0	0	10	0	0	3	6.5	1	3.5	7	1	3.5	6.5	1	3	6.5	0.666667	3.5	7	0.666667	3.5	6.5	0.666667	4	6.5	1	4	6.5	0.666667	3.5	6	1	3.5	6	0.666667	4	6	1	4.5	7	1	4.5	6.5	1	4.5	7	0.666667	4.5	6.5	0.666667	5	6.5	1	5	6.5	0.666667	4	6.25	1	4.25	6.5	1	4.25	6.25	1	4	6.25	0.666667	4.25	6.5	0.666667	4.25	6.25	0.666667	4.5	6.25	1	4.5	6.25	0.666667	4.25	6	1	4.25	6	0.666667	4.5	6	1	4.5	6	0.666667	4.75	6.5	1	4.75	6.25	1	4.75	6.5	0.666667	4.75	6.25	0.666667	5	6.25	1	5	6.25	0.666667	4.75	6	1	4.75	6	0.666667	5	6	1	5	6	0.666667	5.5	7	1	5.5	6.5	1	5.5	7	0.666667	5.5	6.5	0.666667	6	6.5	1	6	6.5	0.666667	5.25	6.5	1	5.25	6.25	1	5.25	6.5	0.666667	5.25	6.25	0.666667	5.5	6.25	1	5.5	6.25	0.666667	5.25	6	1	5.25	6	0.666667	5.5	6	1	5.5	6	0.666667	5.75	6.5	1	5.75	6.25	1	5.75	6.5	0.666667	5.75	6.25	0.666667	6	6.25	1	6	6.25	0.666667	5.75	6	1	5.75	6	0.666667	6	6	1	6.5	7	1	6.5	6.5	1	6.5	7	0.666667	6.5	6.5	0.666667	7	6.5	1	7	6.5	0.666667	6.5	6	1	6.5	6	0.666667	3	5.5	1	3.5	5.5	1	3	5.5	0.666667	3.5	5.5	0.666667	3.5	5	1	3.5	5	0.666667	3.5	5.75	1	3.75	6	1	3.75	5.75	1	3.5	5.75	0.666667	3.75	6	0.666667	3.75	5.75	0.666667	4	5.75	1	4	5.75	0.666667	3.75	5.5	1	3.75	5.5	0.666667	4	5.5	1	4	5.5	0.666667	3.5	5.25	1	3.75	5.25	1	3.5	5.25	0.666667	3.75	5.25	0.666667	4	5.25	1	4	5.25	0.666667	3.75	5	1	3.75	5	0.666667	4	5	1	4	5	0.666667	4	5.875	1	4.125	6	1	4.125	5.875	1	4	5.875	0.666667	4.125	6	0.666667	4.125	5.875	0.666667	4.25	5.875	1	4.25	5.875	0.666667	4.125	5.75	1	4.125	5.75	0.666667	4.25	5.75	1	4.25	5.75	0.666667	4.375	6	1	4.375	5.875	1	4.375	6	0.666667	4.375	5.875	0.666667	4.5	5.875	1	4.5	5.875	0.666667	4.375	5.75	1	4.375	5.75	0.666667	4.5	5.75	1	4.5	5.75	0.666667	4	5.625	1	4.125	5.625	1	4	5.625	0.666667	4.125	5.625	0.666667	4.25	5.625	1	4.25	5.625	0.666667	4.125	5.5	1	4.125	5.5	0.666667	4.25	5.5	1	4.25	5.5	0.666667	4.375	5.625	1	4.375	5.625	0.666667	4.5	5.625	1	4.5	5.625	0.666667	4.375	5.5	1	4.375	5.5	0.666667	4.5	5.5	1	4.5	5.5	0.666667	4.625	6	1	4.625	5.875	1	4.625	6	0.666667	4.625	5.875	0.666667	4.75	5.875	1	4.75	5.875	0.666667	4.625	5.75	1	4.625	5.75	0.666667	4.75	5.75	1	4.75	5.75	0.666667	4.875	6	1	4.875	5.875	1	4.875	6	0.666667	4.875	5.875	0.666667	5	5.875	1	5	5.875	0.666667	4.875	5.75	1	4.875	5.75	0.666667	5	5.75	1	5	5.75	0.666667	4.625	5.625	1	4.625	5.625	0.666667	4.75	5.625	1	4.75	5.625	0.666667	4.625	5.5	1	4.625	5.5	0.666667	4.75	5.5	1	4.75	5.5	0.666667	4.875	5.625	1	4.875	5.625	0.666667	5	5.625	1	5	5.625	0.666667	4.875	5.5	1	4.875	5.5	0.666667	5	5.5	1	5	5.5	0.666667	4	5.375	1	4.125	5.375	1	4	5.375	0.666667	4.125	5.375	0.666667	4.25	5.375	1	4.25	5.375	0.666667	4.125	5.25	1	4.125	5.25	0.666667	4.25	5.25	1	4.25	5.25	0.666667	4.375	5.375	1	4.375	5.375	0.666667	4.5	5.375	1	4.5	5.375	0.666667	4.375	5.25	1	4.375	5.25	0.666667	4.5	5.25	1	4.5	5.25	0.666667	4	5.125	1	4.125	5.125	1	4	5.125	0.666667	4.125	5.125	0.666667	4.25	5.125	1	4.25	5.125	0.666667	4.125	5	1	4.125	5	0.666667	4.25	5	1	4.25	5	0.666667	4.375	5.125	1	4.375	5.125	0.666667	4.5	5.125	1	4.5	5.125	0.666667	4.375	5	1	4.375	5	0.666667	4.5	5	1	4.5	5	0.666667	4.625	5.375	1	4.625	5.375	0.666667	4.75	5.375	1	4.75	5.375	0.666667	4.625	5.25	1	4.625	5.25	0.666667	4.75	5.25	1	4.75	5.25	0.666667	4.875	5.375	1	4.875	5.375	0.666667	5	5.375	1	5	5.375	0.666667	4.875	5.25	1	4.875	5.25	0.666667	5	5.25	1	5	5.25	0.666667	4.625	5.125	1	4.625	5.125	0.666667	4.75	5.125	1	4.75	5.125	0.666667	4.625	5	1	4.625	5	0.666667	4.75	5	1	4.75	5	0.666667	4.875	5.125	1	4.875	5.125	0.666667	5	5.125	1	5	5.125	0.666667	4.875	5	1	4.875	5	0.666667	5	5	1	5	5	0.666667	5.125	6	1	5.125	5.875	1	5.125	6	0.666667	5.125	5.875	0.666667	5.25	5.875	1	5.25	5.875	0.666667	5.125	5.75	1	5.125	5.75	0.666667	5.25	5.75	1	5.25	5.75	0.666667	5.375	6	1	5.375	5.875	1	5.375	6	0.666667	5.375	5.875	0.666667	5.5	5.875	1	5.5	5.875	0.666667	5.375	5.75	1	5.375	5.75	0.666667	5.5	5.75	1	5.5	5.75	0.666667	5.125	5.625	1	5.125	5.625	0.666667	5.25	5.625	1	5.25	5.625	0.666667	5.125	5.5	1	5.125	5.5	0.666667	5.25	5.5	1	5.25	5.5	0.666667	5.375	5.625	1	5.375	5.625	0.666667	5.5	5.625	1	5.5	5.625	0.666667	5.375	5.5	1	5.375	5.5	0.666667	5.5	5.5	1	5.5	5.5	0.666667	5.625	6	1	5.625	5.875	1	5.625	6	0.666667	5.625	5.875	0.666667	5.75	5.875	1	5.75	5.875	0.666667	5.625	5.75	1	5.625	5.75	0.666667	5.75	5.75	1	5.75	5.75	0.666667	5.875	6	1	5.875	5.875	1	5.875	6	0.666667	5.875	5.875	0.666667	6	5.875	1	6	5.875	0.666667	5.875	5.75	1	5.875	5.75	0.666667	6	5.75	1	6	5.75	0.666667	5.625	5.625	1	5.625	5.625	0.666667	5.75	5.625	1	5.75	5.625	0.666667	5.625	5.5	1	5.625	5.5	0.666667	5.75	5.5	1	5.75	5.5	0.666667	5.875	5.625	1	5.875	5.625	0.666667	6	5.625	1	6	5.625	0.666667	5.875	5.5	1	5.875	5.5	0.666667	6	5.5	1	6	5.5	0.666667	5.125	5.375	1	5.125	5.375	0.666667	5.25	5.375	1	5.25	5.375	0.666667	5.125	5.25	1	5.125	5.25	0.666667	5.25	5.25	1	5.25	5.25	0.666667	5.375	5.375	1	5.375	5.375	0.666667	5.5	5.375	1	5.5	5.375	0.666667	5.375	5.25	1	5.375	5.25	0.666667	5.5	5.25	1	5.5	5.25	0.666667	5.125	5.125	1	5.125	5.125	0.666667	5.25	5.125	1	5.25	5.125	0.666667	5.125	5	1	5.125	5	0.666667	5.25	5	1	5.25	5	0.666667	5.375	5.125	1	5.375	5.125	0.666667	5.5	5.125	1	5.5	5.125	0.666667	5.375	5	1	5.375	5	0.666667	5.5	5	1	5.5	5	0.666667	5.625	5.375	1	5.625	5.375	0.666667	5.75	5.375	1	5.75	5.375	0.666667	5.625	5.25	1	5.625	5.25	0.666667	5.75	5.25	1	5
[...]
<CellData Scalars="scalars">
<DataArray type="Int32" Name="nodeid" format="ascii">1	2	3	4	5	6	7	8	9	10	11	12	13	14	15	16	17	18	19	20	21	22	23	24	25	26	27	28	29	30	31	32	33	301	302	304	303	305	306	313	314	316	315	309	310	312	311	317	318	325	326	328	327	321	322	324	323	329	330	332	331	38	39	40	41	42	43	333	337	338	340	339	341	342	344	343	335	353	354	356	355	357	358	360	359	365	366	368	367	361	362	364	363	373	374	376	375	377	378	380	379	385	386	388	387	381	382	384	383	413	414	416	415	417	418	420	419	425	426	428	427	421	422	424	423	393	394	396	395	397	398	400	399	405	406	408	407	401	402	404	403	437	438	440	439	441	442	444	443	449	450	452	451	445	446	448	447	457	458	460	459	461	462	464	463	469	470	472	471	465	466	468	467	497	498	500	499	501	502	504	503	509	510	512	511	505	506	508	507	477	478	480	479	481	482	484	483	489	490	492	491	485	486	488	487	517	518	520	519	514	516	521	522	524	523	48	49	50	51	52	53	525	529	530	532	531	533	534	536	535	527	545	546	548	547	549	550	552	551	557	558	560	559	553	554	556	555	565	566	568	567	569	570	572	571	577	578	580	579	573	574	576	575	605	606	608	607	609	610	612	611	617	618	620	619	613	614	616	615	585	586	588	587	589	590	592	591	597	598	600	599	593	594	596	595	629	630	632	631	633	634	636	635	641	642	644	643	637	638	640	639	649	650	652	651	653	654	656	655	661	662	664	663	657	658	660	659	689	690	692	691	693	694	696	695	701	702	704	703	697	698	700	699	669	670	672	671	673	674	676	675	681	682	684	683	677	678	680	679	709	710	712	711	706	708	713	714	716	715	58	59	60	61	62	63	717	718	720	719	725	726	728	727	729	730	732	731	724	723	737	738	740	739	741	742	744	743	736	735	745	746	748	747	68	69	70	71	72	73	74	75	76	77	78	79	80	81	82	83	84	85	86	87	88	89	90	91	92	93	94	95	96	97	98	99	100	101	102	103	104	105	106	107	108	109	110	111	112	113	114	115	116	117	118	119	120	121	122	123	124	125	126	127	128	129	130	131	132	133	134	749	750	752	751	753	754	756	755	137	138	139	140	141	142	143	757	758	760	759	765	766	768	767	769	770	772	771	777	778	780	779	773	774	776	775	785	786	788	787	789	790	792	791	797	798	800	799	793	794	796	795	801	802	804	803	148	149	150	151	152	153	805	806	808	807	813	814	816	815	817	818	820	819	825	826	828	827	821	822	824	823	833	834	836	835	837	838	840	839	845	846	848	847	841	842	844	843	849	850	852	851	158	159	160	161	162	163	164	853	854	856	855	857	858	860	859	167	168	169	170	171	172	173	174	175	176	177	178	179	180	181	182	183	184	185	186	187	188	189	190	191	192	193	194	195	196	197	198	199	200	201	202	203	204	205	206	207	208	209	210	211	212	213	214	215	216	217	218	219	220	221	222	223	224	225	226	227	228	229	230	231	232	233	234	235	236	237	238	239	240	241	242	243	244	861	862	864	863	865	866	868	867	247	248	249	250	251	252	253	254	869	870	872	871	873	874	876	875	257	258	259	260	261	262	263	264	265	266	267	268	269	270	271	272	273	274	275	276	277	278	279	280	281	282	283	284	285	286	287	288	289	290	291	292	293	294	295	296	297	298	299	300	</DataArray>
<DataArray type="Int32" Name="nodenumber" format="ascii">1	2	3	4	5	6	7	8	9	10	11	12	13	14	15	16	17	18	19	20	21	22	23	24	25	26	27	28	29	30	31	32	33	34	35	37	36	38	39	44	45	47	46	40	41	43	42	48	49	54	55	57	56	50	51	53	52	58	59	61	60	62	63	64	65	66	67	68	69	70	72	71	74	75	77	76	73	78	79	81	80	82	83	85	84	90	91	93	92	86	87	89	88	94	95	97	96	98	99	101	100	106	107	109	108	102	103	105	104	126	127	129	128	130	131	133	132	138	139	141	140	134	135	137	136	110	111	113	112	114	115	117	116	122	123	125	124	118	119	121	120	142	143	145	144	146	147	149	148	154	155	157	156	150	151	153	152	158	159	161	160	162	163	165	164	170	171	173	172	166	167	169	168	190	191	193	192	194	195	197	196	202	203	205	204	198	199	201	200	174	175	177	176	178	179	181	180	186	187	189	188	182	183	185	184	206	207	209	208	210	215	211	212	214	213	216	217	218	219	220	221	222	223	224	226	225	228	229	231	230	227	232	233	235	234	236	237	239	238	244	245	247	246	240	241	243	242	248	249	251	250	252	253	255	254	260	261	263	262	256	257	259	258	280	281	283	282	284	285	287	286	292	293	295	294	288	289	291	290	264	265	267	266	268	269	271	270	276	277	279	278	272	273	275	274	296	297	299	298	300	301	303	302	308	309	311	310	304	305	307	306	312	313	315	314	316	317	319	318	324	325	327	326	320	321	323	322	344	345	347	346	348	349	351	350	356	357	359	358	352	353	355	354	328	329	331	330	332	333	335	334	340	341	343	342	336	337	339	338	360	361	363	362	364	369	365	366	368	367	370	371	372	373	374	375	376	377	379	378	380	381	383	382	384	385	387	386	389	388	390	391	393	392	394	395	397	396	399	398	400	401	403	402	404	405	406	407	408	409	410	411	412	413	414	415	416	417	418	419	420	421	422	423	424	425	426	427	428	429	430	431	432	433	434	435	436	437	438	439	440	441	442	443	444	445	446	447	448	449	450	451	452	453	454	455	456	457	458	459	460	461	462	463	464	465	466	467	468	469	470	471	472	474	473	475	476	478	477	479	480	481	482	483	484	485	486	487	489	488	490	491	493	492	494	495	497	496	502	503	505	504	498	499	501	500	506	507	509	508	510	511	513	512	518	519	521	520	514	515	517	516	522	523	525	524	526	527	528	529	530	531	532	533	535	534	536	537	539	538	540	541	543	542	548	549	551	550	544	545	547	546	552	553	555	554	556	557	559	558	564	565	567	566	560	561	563	562	568	569	571	570	572	573	574	575	576	577	578	579	580	582	581	583	584	586	585	587	588	589	590	591	592	593	594	595	596	597	598	599	600	601	602	603	604	605	606	607	608	609	610	611	612	613	614	615	616	617	618	619	620	621	622	623	624	625	626	627	628	629	630	631	632	633	634	635	636	637	638	639	640	641	642	643	644	645	646	647	648	649	650	651	652	653	654	655	656	657	658	659	660	661	662	663	664	665	666	668	667	669	670	672	671	673	674	675	676	677	678	679	680	681	682	684	683	685	686	688	687	689	690	691	692	693	694	695	696	697	698	699	700	701	702	703	704	705	706	707	708	709	710	711	712	713	714	715	716	717	718	719	720	721	722	723	724	725	726	727	728	729	730	731	732	</DataArray>
<DataArray type="Int32" Name="layer" format="ascii">1	1	1	1	1	1	1	1	1	1	1	1	1	1	1	1	1	1	1	1	1	1	1	1	1	1	1	1	1	1	1	1	1	1	1	1	1	1	1	1	1	1	1	1	1	1	1	1	1	1	1	1	1	1	1	1	1	1	1	1	1	1	1	1	1	1	1	1	1	1	1	1	1	1	1	1	1	1	1	1	1	1	1	1	1	1	1	1	1	1	1	1	1	1	1	1	1	1	1	1	1	1	1	1	1	1	1	1	1	1	1	1	1	1	1	1	1	1	1	1	1	1	1	1	1	1	1	1	1	1	1	1	1	1	1	1	1	1	1	1	1	1	1	1	1	1	1	1	1	1	1	1	1	1	1	1	1	1	1	1	1	1	1	1	1	1	1	1	1	1	1	1	1	1	1	1	1	1	1	1	1	1	1	1	1	1	1	1	1	1	1	1	1	1	1	1	1	1	1	1	1	1	1	1	1	1	1	1	1	1	1	1	1	1	1	1	1	1	1	1	1	1	1	1	1	1	1	1	1	1	1	1	1	1	1	1	1	1	1	1	1	1	1	1	1	1	1	1	1	1	1	1	1	1	1	1	1	1	1	1	1	1	1	1	1	1	1	1	1	1	1	1	1	1	1	1	1	1	1	1	1	1	1	1	1	1	1	1	1	1	1	1	1	1	1	1	1	1	1	1	1	1	1	1	1	1	1	1	1	1	1	1	1	1	1	1	1	1	1	1	1	1	1	1	1	1	1	1	1	1	1	1	1	1	1	1	1	1	1	1	1	1	1	1	1	1	1	1	1	1	1	1	1	1	1	1	1	1	1	1	1	1	1	1	1	1	1	1	1	1	1	1	1	1	1	1	1	1	1	1	1	1	1	1	1	1	1	1	1	1	1	1	1	1	1	1	1	1	1	1	1	1	1	1	1	1	1	1	1	1	1	1	1	1	1	1	1	1	1	1	1	1	1	1	1	1	1	1	1	1	1	1	1	1	1	1	2	2	2	2	2	2	2	2	2	2	2	2	2	2	2	2	2	2	2	2	2	2	2	2	2	2	2	2	2	2	2	2	2	2	2	2	2	2	2	2	2	2	2	2	2	2	2	2	2	2	2	2	2	2	2	2	2	2	2	2	2	2	2	2	2	2	2	2	2	2	2	2	2	2	2	2	2	2	2	2	2	2	2	2	2	2	2	2	2	2	2	2	2	2	2	2	2	2	2	2	2	2	2	2	2	2	2	2	2	2	2	2	2	2	2	2	2	2	2	2	2	2	2	2	2	2	2	2	2	2	2	2	2	2	2	2	2	2	2	2	2	2	2	2	2	2	2	2	2	2	2	2	2	2	2	2	2	2	2	2	2	2	2	2	2	2	2	2	2	2	2	2	2	2	2	2	2	2	2	2	2	2	2	2	3	3	3	3	3	3	3	3	3	3	3	3	3	3	3	3	3	3	3	3	3	3	3	3	3	3	3	3	3	3	3	3	3	3	3	3	3	3	3	3	3	3	3	3	3	3	3	3	3	3	3	3	3	3	3	3	3	3	3	3	3	3	3	3	3	3	3	3	3	3	3	3	3	3	3	3	3	3	3	3	3	3	3	3	3	3	3	3	3	3	3	3	3	3	3	3	3	3	3	3	3	3	3	3	3	3	3	3	3	3	3	3	</DataArray>
<DataArray type="Int32" Name="row" format="ascii">1	1	1	1	1	1	1	1	1	1	2	2	2	2	2	2	2	2	2	2	3	3	3	3	3	3	3	3	3	3	4	4	4	4	4	4	4	4	4	4	4	4	4	4	4	4	4	4	4	4	4	4	4	4	4	4	4	4	4	4	4	4	4	4	5	5	5	5	5	5	5	5	5	5	5	5	5	5	5	5	5	5	5	5	5	5	5	5	5	5	5	5	5	5	5	5	5	5	5	5	5	5	5	5	5	5	5	5	5	5	5	5	5	5	5	5	5	5	5	5	5	5	5	5	5	5	5	5	5	5	5	5	5	5	5	5	5	5	5	5	5	5	5	5	5	5	5	5	5	5	5	5	5	5	5	5	5	5	5	5	5	5	5	5	5	5	5	5	5	5	5	5	5	5	5	5	5	5	5	5	5	5	5	5	5	5	5	5	5	5	5	5	5	5	5	5	5	5	5	5	5	5	5	5	5	5	5	5	5	5	5	5	5	5	5	5	5	5	6	6	6	6	6	6	6	6	6	6	6	6	6	6	6	6	6	6	6	6	6	6	6	6	6	6	6	6	6	6	6	6	6	6	6	6	6	6	6	6	6	6	6	6	6	6	6	6	6	6	6	6	6	6	6	6	6	6	6	6	6	6	6	6	6	6	6	6	6	6	6	6	6	6	6	6	6	6	6	6	6	6	6	6	6	6	6	6	6	6	6	6	6	6	6	6	6	6	6	6	6	6	6	6	6	6	6	6	6	6	6	6	6	6	6	6	6	6	6	6	6	6	6	6	6	6	6	6	6	6	6	6	6	6	6	6	6	6	6	6	6	6	6	6	6	6	6	6	6	6	6	6	6	6	7	7	7	7	7	7	7	7	7	7	7	7	7	7	7	7	7	7	7	7	7	7	7	7	7	7	7	7	7	7	7	7	7	7	8	8	8	8	8	8	8	8	8	8	9	9	9	9	9	9	9	9	9	9	10	10	10	10	10	10	10	10	10	10	1	1	1	1	1	1	1	1	1	1	2	2	2	2	2	2	2	2	2	2	3	3	3	3	3	3	3	3	3	3	4	4	4	4	4	4	4	4	4	4	4	4	4	4	4	4	5	5	5	5	5	5	5	5	5	5	5	5	5	5	5	5	5	5	5	5	5	5	5	5	5	5	5	5	5	5	5	5	5	5	5	5	5	5	5	5	5	5	5	5	5	5	6	6	6	6	6	6	6	6	6	6	6	6	6	6	6	6	6	6	6	6	6	6	6	6	6	6	6	6	6	6	6	6	6	6	6	6	6	6	6	6	6	6	6	6	6	6	7	7	7	7	7	7	7	7	7	7	7	7	7	7	7	7	8	8	8	8	8	8	8	8	8	8	9	9	9	9	9	9	9	9	9	9	10	10	10	10	10	10	10	10	10	10	1	1	1	1	1	1	1	1	1	1	2	2	2	2	2	2	2	2	2	2	3	3	3	3	3	3	3	3	3	3	4	4	4	4	4	4	4	4	4	4	5	5	5	5	5	5	5	5	5	5	5	5	5	5	5	5	6	6	6	6	6	6	6	6	6	6	6	6	6	6	6	6	7	7	7	7	7	7	7	7	7	7	8	8	8	8	8	8	8	8	8	8	9	9	9	9	9	9	9	9	9	9	10	10	10	10	10	10	10	10	10	10	</DataArray>
<DataArray type="Int32" Name="col" format="ascii">1	2	3	4	5	6	7	8	9	10	1	2	3	4	5	6	7	8	9	10	1	2	3	4	5	6	7	8	9	10	1	2	3	4	4	4	4	5	5	5	5	5	5	5	5	5	5	6	6	6	6	6	6	6	6	6	6	7	7	7	7	8	9	10	1	2	3	4	4	4	4	4	4	4	4	4	4	5	5	5	5	5	5	5	5	5	5	5	5	5	5	5	5	5	5	5	5	5	5	5	5	5	5	5	5	5	5	5	5	5	5	5	5	5	5	5	5	5	5	5	5	5	5	5	5	5	5	5	5	5	5	5	5	5	5	5	5	5	5	5	5	6	6	6	6	6	6	6	6	6	6	6	6	6	6	6	6	6	6	6	6	6	6	6	6	6	6	6	6	6	6	6	6	6	6	6	6	6	6	6	6	6	6	6	6	6	6	6	6	6	6	6	6	6	6	6	6	6	6	6	6	6	6	6	6	7	7	7	7	7	7	7	7	7	7	8	9	10	1	2	3	4	4	4	4	4	4	4	4	4	4	5	5	5	5	5	5	5	5	5	5	5	5	5	5	5	5	5	5	5	5	5	5	5	5	5	5	5	5	5	5	5	5	5	5	5	5	5	5	5	5	5	5	5	5	5	5	5	5	5	5	5	5	5	5	5	5	5	5	5	5	5	5	5	5	6	6	6	6	6	6	6	6	6	6	6	6	6	6	6	6	6	6	6	6	6	6	6	6	6	6	6	6	6	6	6	6	6	6	6	6	6	6	6	6	6	6	6	6	6	6	6	6	6	6	6	6	6	6	6	6	6	6	6	6	6	6	6	6	7	7	7	7	7	7	7	7	7	7	8	9	10	1	2	3	4	4	4	4	5	5	5	5	5	5	5	5	5	5	6	6	6	6	6	6	6	6	6	6	7	7	7	7	8	9	10	1	2	3	4	5	6	7	8	9	10	1	2	3	4	5	6	7	8	9	10	1	2	3	4	5	6	7	8	9	10	1	2	3	4	5	6	7	8	9	10	1	2	3	4	5	6	7	8	9	10	1	2	3	4	5	6	7	8	9	10	1	2	3	4	5	5	5	5	6	6	6	6	7	8	9	10	1	2	3	4	4	4	4	5	5	5	5	5	5	5	5	5	5	5	5	5	5	5	5	6	6	6	6	6	6	6	6	6	6	6	6	6	6	6	6	7	7	7	7	8	9	10	1	2	3	4	4	4	4	5	5	5	5	5	5	5	5	5	5	5	5	5	5	5	5	6	6	6	6	6	6	6	6	6	6	6	6	6	6	6	6	7	7	7	7	8	9	10	1	2	3	4	5	5	5	5	6	6	6	6	7	8	9	10	1	2	3	4	5	6	7	8	9	10	1	2	3	4	5	6	7	8	9	10	1	2	3	4	5	6	7	8	9	10	1	2	3	4	5	6	7	8	9	10	1	2	3	4	5	6	7	8	9	10	1	2	3	4	5	6	7	8	9	10	1	2	3	4	5	6	7	8	9	10	1	2	3	4	5	5	5	5	6	6	6	6	7	8	9	10	1	2	3	4	5	5	5	5	6	6	6	6	7	8	9	10	1	2	3	4	5	6	7	8	9	10	1	2	3	4	5	6	7	8	9	10	1	2	3	4	5	6	7	8	9	10	1	2	3	4	5	6	7	8	9	10	</DataArray>
<DataArray type="Int32" Name="vtkid" format="ascii">0	1	2	3	4	5	6	7	8	9	10	11	12	13	14	15	16	17	18	19	20	21	22	23	24	25	26	27	28	29	30	31	32	33	34	35	36	37	38	39	40	41	42	43	44	45	46	47	48	49	50	51	52	53	54	55	56	57	58	59	60	61	62	63	64	65	66	67	68	69	70	71	72	73	74	75	76	77	78	79	80	81	82	83	84	85	86	87	88	89	90	91	92	93	94	95	96	97	98	99	100	101	102	103	104	105	106	107	108	109	110	111	112	113	114	115	116	117	118	119	120	121	122	123	124	125	126	127	128	129	130	131	132	133	134	135	136	137	138	139	140	141	142	143	144	145	146	147	148	149	150	151	152	153	154	155	156	157	158	159	160	161	162	163	164	165	166	167	168	169	170	171	172	173	174	175	176	177	178	179	180	181	182	183	184	185	186	187	188	189	190	191	192	193	194	195	196	197	198	199	200	201	202	203	204	205	206	207	208	209	210	211	212	213	214	215	216	217	218	219	220	221	222	223	224	225	226	227	228	229	230	231	232	233	234	235	236	237	238	239	240	241	242	243	244	245	246	247	248	249	250	251	252	253	254	255	256	257	258	259	260	261	262	263	264	265	266	267	268	269	270	271	272	273	274	275	276	277	278	279	280	281	282	283	284	285	286	287	288	289	290	291	292	293	294	295	296	297	298	299	300	301	302	303	304	305	306	307	308	309	310	311	312	313	314	315	316	317	318	319	320	321	322	323	324	325	326	327	328	329	330	331	332	333	334	335	336	337	338	339	340	341	342	343	344	345	346	347	348	349	350	351	352	353	354	355	356	357	358	359	360	361	362	363	364	365	366	367	368	369	370	371	372	373	374	375	376	377	378	379	380	381	382	383	384	385	386	387	388	389	390	391	392	393	394	395	396	397	398	399	400	401	402	403	404	405	406	407	408	409	410	411	412	413	414	415	416	417	418	419	420	421	422	423	424	425	426	427	428	429	430	431	432	433	434	435	436	437	438	439	440	441	442	443	444	445	446	447	448	449	450	451	452	453	454	455	456	457	458	459	460	461	462	463	464	465	466	467	468	469	470	471	472	473	474	475	476	477	478	479	480	481	482	483	484	485	486	487	488	489	490	491	492	493	494	495	496	497	498	499	500	501	502	503	504	505	506	507	508	509	510	511	512	513	514	515	516	517	518	519	520	521	522	523	524	525	526	527	528	529	530	531	532	533	534	535	536	537	538	539	540	541	542	543	544	545	546	547	548	549	550	551	552	553	554	555	556	557	558	559	560	561	562	563	564	565	566	567	568	569	570	571	572	573	574	575	576	577	578	579	580	581	582	583	584	585	586	587	588	589	590	591	592	593	594	595	596	597	598	599	600	601	602	603	604	605	606	607	608	609	610	611	612	613	614	615	616	617	618	619	620	621	622	623	624	625	626	627	628	629	630	631	632	633	634	635	636	637	638	639	640	641	642	643	644	645	646	647	648	649	650	651	652	653	654	655	656	657	658	659	660	661	662	663	664	665	666	667	668	669	670	671	672	673	674	675	676	677	678	679	680	681	682	683	684	685	686	687	688	689	690	691	692	693	694	695	696	697	698	699	700	701	702	703	704	705	706	707	708	709	710	711	712	713	714	715	716	717	718	719	720	721	722	723	724	725	726	727	728	729	730	731	</DataArray>
<DataArray type="Float32" Name="top" format="ascii">1	1	1	1	1	1	1	1	1	1	1	1	1	1	1	1	1	1	1	1	1	1	1	1	1	1	1	1	1	1	1	1	1	1	1	1	1	1	1	1	1	1	1	1	1	1	1	1	1	1	1	1	1	1	1	1	1	1	1	1	1	1	1	1	1	1	1	1	1	1	1	1	1	1	1	1	1	1	1	1	1	1	1	1	1	1	1	1	1	1	1	1	1	1	1	1	1	1	1	1	1	1	1	1	1	1	1	1	1	1	1	1	1	1	1	1	1	1	1	1	1	1	1	1	1	1	1	1	1	1	1	1	1	1	1	1	1	1	1	1	1	1	1	1	1	1	1	1	1	1	1	1	1	1	1	1	1	1	1	1	1	1	1	1	1	1	1	1	1	1	1	1	1	1	1	1	1	1	1	1	1	1	1	1	1	1	1	1	1	1	1	1	1	1	1	1	1	1	1	1	1	1	1	1	1	1	1	1	1	1	1	1	1	1	1	1	1	1	1	1	1	1	1	1	1	1	1	1	1	1	1	1	1	1	1	1	1	1	1	1	1	1	1	1	1	1	1	1	1	1	1	1	1	1	1	1	1	1	1	1	1	1	1	1	1	1	1	1	1	1	1	1	1	1	1	1	1	1	1	1	1	1	1	1	1	1	1	1	1	1	1	1	1	1	1	1	1	1	1	1	1	1	1	1	1	1	1	1	1	1	1	1	1	1	1	1	1	1	1	1	1	1	1	1	1	1	1	1	1	1	1	1	1	1	1	1	1	1	1	1	1	1	1	1	1	1	1	1	1	1	1	1	1	1	1	1	1	1	1	1	1	1	1	1	1	1	1	1	1	1	1	1	1	1	1	1	1	1	1	1	1	1	1	1	1	1	1	1	1	1	1	1	1	1	1	1	1	1	1	1	1	1	1	1	1	1	1	1	1	1	1	1	1	1	1	1	1	1	1	1	1	1	1	1	1	1	1	1	1	1	1	1	1	1	1	1	0.666667	0.666667	0.666667	0.666667	0.666667	0.666667	0.666667	0.666667	0.666667	0.666667	0.666667	0.666667	0.666667	0.666667	0.666667	0.666667	0.666667	0.666667	0.666667	0.666667	0.666667	0.666667	0.666667	0.666667	0.666667	0.666667	0.666667	0.666667	0.666667	0.666667	0.666667	0.666667	0.666667	0.666667	0.666667	0.666667	0.666667	0.666667	0.666667	0.666667	0.666667	0.666667	0.666667	0.666667	0.666667	0.666667	0.666667	0.666667	0.666667	0.666667	0.666667	0.666667	0.666667	0.666667	0.666667	0.666667	0.666667	0.666667	0.666667	0.666667	0.666667	0.666667	0.666667	0.666667	0.666667	0.666667	0.666667	0.666667	0.666667	0.666667	0.666667	0.666667	0.666667	0.666667	0.666667	0.666667	0.666667	0.666667	0.666667	0.666667	0.666667	0.666667	0.666667	0.666667	0.666667	0.666667	0.666667	0.666667	0.666667	0.666667	0.666667	0.666667	0.666667	0.666667	0.666667	0.666667	0.666667	0.666667	0.666667	0.666667	0.666667	0.666667	0.666667	0.666667	0.666667	0.666667	0.666667	0.666667	0.666667	0.666667	0.666667	0.666667	0.666667	0.666667	0.666667	0.666667	0.666667	0.666667	0.666667	0.666667	0.666667	0.666667	0.666667	0.666667	0.666667	0.666667	0.666667	0.666667	0.666667	0.666667	0.666667	0.666667	0.666667	0.666667	0.666667	0.666667	0.666667	0.666667	0.666667	0.666667	0.666667	0.666667	0.666667	0.666667	0.666667	0.666667	0.666667	0.666667	0.666667	0.666667	0.666667	0.666667	0.666667	0.666667	0.666667	0.666667	0.666667	0.666667	0.666667	0.666667	0.666667	0.666667	0.666667	0.666667	0.666667	0.666667	0.666667	0.666667	0.666667	0.666667	0.666667	0.666667	0.666667	0.666667	0.666667	0.666667	0.666667	0.666667	0.666667	0.666667	0.666667	0.666667	0.666667	0.666667	0.333333	0.333333	0.333333	0.333333	0.333333	0.333333	0.333333	0.333333	0.333333	0.333333	0.333333	0.333333	0.333333	0.333333	0.333333	0.333333	0.333333	0.333333	0.333333	0.333333	0.333333	0.333333	0.333333	0.333333	0.333333	0.333333	0.333333	0.333333	0.333333	0.333333	0.333333	0.333333	0.333333	0.333333	0.333333	0.333333	0.333333	0.333333	0.333333	0.333333	0.333333	0.333333	0.333333	0.333333	0.333333	0.333333	0.333333	0.333333	0.333333	0.333333	0.333333	0.333333	0.333333	0.333333	0.333333	0.333333	0.333333	0.333333	0.333333	0.333333	0.333333	0.333333	0.333333	0.333333	0.333333	0.333333	0.333333	0.333333	0.333333	0.333333	0.333333	0.333333	0.333333	0.333333	0.333333	0.333333	0.333333	0.333333	0.333333	0.333333	0.333333	0.333333	0.333333	0.333333	0.333333	0.333333	0.333333	0.333333	0.333333	0.333333	0.333333	0.333333	0.333333	0.333333	0.333333	0.333333	0.333333	0.333333	0.333333	0.333333	0.333333	0.333333	0.333333	0.333333	0.333333	0.333333	0.333333	0.333333	0.333333	0.333333	0.333333	0.333333	</DataArray>