<?xml version="1.0"?>
<VTKFile type="UnstructuredGrid" version="0.1" byte_order="BigEndian">
<UnstructuredGrid GhostLevel="0">
<Piece NumberOfPoints="6208" NumberOfCells="776" ><Points>
<DataArray type="Float64" NumberOfComponents="3" format="ascii">
0	1000	100	0	1000	50	100	1000	100	100	1000	50	100	900	100	100	900	50	0	900	100	0	900	50	100	1000	100	100	1000	50	200	1000	100	200	1000	50	200	900	100	200	900	50	100	900	100	100	900	50	200	1000	100	200	1000	50	300	1000	100	300	1000	50	300	900	100	300	900	50	200	900	100	200	900	50	300	1000	100	300	1000	50	400	1000	100	400	1000	50	400	900	100	400	900	50	300	900	100	300	900	50	400	1000	100	400	1000	50	500	1000	100	500	1000	50	500	900	100	500	900	50	400	900	100	400	900	50	500	1000	100	500	1000	50	600	1000	100	600	1000	50	600	900	100	600	900	50	500	900	100	500	900	50	600	1000	100	600	1000	50	700	1000	100	700	1000	50	700	900	100	700	900	50	600	900	100	600	900	50	700	1000	100	700	1000	50	800	1000	100	800	1000	50	800	900	100	800	900	50	700	900	100	700	900	50	800	1000	100	800	1000	50	900	1000	100	900	1000	50	900	900	100	900	900	50	800	900	100	800	900	50	900	1000	100	900	1000	50	1000	1000	100	1000	1000	50	1000	900	100	1000	900	50	900	900	100	900	900	50	0	900	100	0	900	50	100	900	100	100	900	50	100	800	100	100	800	50	0	800	100	0	800	50	100	900	100	100	900	50	200	900	100	200	900	50	200	800	100	200	800	50	100	800	100	100	800	50	200	900	100	200	900	50	300	900	100	300	900	50	300	800	100	300	800	50	200	800	100	200	800	50	300	900	100	300	900	50	400	900	100	400	900	50	400	800	100	400	800	50	300	800	100	300	800	50	400	900	100	400	900	50	500	900	100	500	900	50	500	800	100	500	800	50	400	800	100	400	800	50	500	900	100	500	900	50	600	900	100	600	900	50	600	800	100	600	800	50	500	800	100	500	800	50	600	900	100	600	900	50	700	900	100	700	900	50	700	800	100	700	800	50	600	800	100	600	800	50	700	900	100	700	900	50	800	900	100	800	900	50	800	800	100	800	800	50	700	800	100	700	800	50	800	900	100	800	900	50	900	900	100	900	900	50	900	800	100	900	800	50	800	800	100	800	800	50	900	900	100	900	900	50	1000	900	100	1000	900	50	1000	800	100	1000	800	50	900	800	100	900	800	50	0	800	100	0	800	50	100	800	100	100	800	50	100	700	100	100	700	50	0	700	100	0	700	50	100	800	100	100	800	50	200	800	100	200	800	50	200	700	100	200	700	50	100	700	100	100	700	50	200	800	100	200	800	50	300	800	100	300	800	50	300	700	100	300	700	50	200	700	100	200	700	50	300	800	100	300	800	50	350	800	100	350	800	50	350	750	100	350	750	50	300	750	100	300	750	50	350	800	100	350	800	50	400	800	100	400	800	50	400	750	100	400	750	50	350	750	100	350	750	50	350	750	100	350	750	50	400	750	100	400	750	50	400	700	100	400	700	50	350	700	100	350	700	50	300	750	100	300	750	50	350	750	100	350	750	50	350	700	100	350	700	50	300	700	100	300	700	50	400	800	100	400	800	50	450	800	100	450	800	50	450	750	100	450	750	50	400	750	100	400	750	50	450	800	100	450	800	50	500	800	100	500	800	50	500	750	100	500	750	50	450	750	100	450	750	50	450	750	100	450	750	50	500	750	100	500	750	50	500	700	100	500	700	50	450	700	100	450	700	50	400	750	100	400	750	50	450	750	100	450	750	50	450	700	100	450	700	50	400	700	100	400	700	50	500	800	100	500	800	50	550	800	100	550	800	50	550	750	100	550	750	50	500	750	100	500	750	50	550	800	100	550	800	50	600	800	100	600	800	50	600	750	100	600	750	50	550	750	100	550	750	50	550	750	100	550	750	50	600	750	100	600	750	50	600	700	100	600	700	50	550	700	100	550	700	50	500	750	100	500	750	50	550	750	100	550	750	50	550	700	100	550	700	50	500	700	100	500	700	50	600	800	100	600	800	50	650	800	100	650	800	50	650	750	100	650	750	50	600	750	100	600	750	50	650	800	100	650	800	50	700	800	100	700	800	50	700	750	100	700	750	50	650	750	100	650	750	50	650	750	100	650	750	50	700	750	100	700	750	50	700	700	100	700	700	50	650	700	100	650	700	50	600	750	100	600	750	50	650	750	100	650	750	50	650	700	100	650	700	50	600	700	100	600	700	50	700	800	100	700	800	50	800	800	100	800	800	50	800	700	100	800	700	50	700	700	100	700	700	50	800	800	100	800	800	50	900	800	100	900	800	50	900	700	100	900	700	50	800	700	100	800	700	50	900	800	100	900	800	50	1000	800	100	1000	800	50	1000	700	100	1000	700	50	900	700	100	900	700	50	0	700	100	0	700	50	100	700	100	100	700	50	100	600	100	100	600	50	0	600	100	0	600	50	100	700	100	100	700	50	200	700	100	200	700	50	200	600	100	200	600	50	100	600	100	100	600	50	200	700	100	200	700	50	250	700	100	250	700	50	250	650	100	250	650	50	200	650	100	200	650	50	250	700	100	250	700	50	300	700	100	300	700	50	300	650	100	300	650	50	250	650	100	250	650	50	250	650	100	250	650	50	300	650	100	300	650	50	300	600	100	300	600	50	250	600	100	250	600	50	200	650	100	200	650	50	250	650	100	250	650	50	250	600	100	250	600	50	200	600	100	200	600	50	300	700	100	300	700	50	325	700	100	325	700	50	325	675	100	325	675	50	300	675	100	300	675	50	325	700	100	325	700	50	350	700	100	350	700	50	350	675	100	350	675	50	325	675	100	325	675	50	325	675	100	325	675	50	350	675	100	350	675	50	350	650	100	350	650	50	325	650	100	325	650	50	300	675	100	300	675	50	325	675	100	325	675	50	325	650	100	325	650	50	300	650	100	300	650	50	350	700	100	350	700	50	375	700	100	375	700	50	375	675	100	375	675	50	350	675	100	350	675	50	375	700	100	375	700	50	400	700	100	400	700	50	400	675	100	400	675	50	375	675	100	375	675	50	375	675	100	375	675	50	400	675	100	400	675	50	400	650	100	400	650	50	375	650	100	375	650	50	350	675	100	350	675	50	375	675	100	375	675	50	375	650	100	375	650	50	350	650	100	350	650	50	350	650	100	350	650	50	375	650	100	375	650	50	375	625	100	375	625	50	350	625	100	350	625	50	375	650	100	375	650	50	400	650	100	400	650	50	400	625	100	400	625	50	375	625	100	375	625	50	375	625	100	375	625	50	400	625	100	400	625	50	400	600	100	400	600	50	375	600	100	375	600	50	350	625	100	350	625	50	375	625	100	375	625	50	375	600	100	375	600	50	350	600	100	350	600	50	300	650	100	300	650	50	325	650	100	325	650	50	325	625	100	325	625	50	300	625	100	300	625	50	325	650	100	325	650	50	350	650	100	350	650	50	350	625	100	350	625	50	325	625	100	325	625	50	325	625	100	325	625	50	350	625	100	350	625	50	350	600	100	350	600	50	325	600	100	325	600	50	300	625	100	300	625	50	325	625	100	325	625	50	325	600	100	325	600	50	300	600	100	300	600	50	400	700	100	400	700	50	425	700	100	425	700	50	425	675	100	425	675	50	400	675	100	400	675	50	425	700	100	425	700	50	450	700	100	450	700	50	450	675	100	450	675	50	425	675	100	425	675	50	425	675	100	425	675	50	450	675	100	450	675	50	450	650	100	450	650	50	425	650	100	425	650	50	400	675	100	400	675	50	425	675	100	425	675	50	425	650	100	425	650	50	400	650	100	400	650	50	450	700	100	450	700	50	475	700	100	475	700	50	475	675	100	475	675	50	450	675	100	450	675	50	475	700	100	475	700	50	500	700	100	500	700	50	500	675	100	500	675	50	475	675	100	475	675	50	475	675	100	475	675	50	500	675	100	500	675	50	500	650	100	500	650	50	475	650	100	475	650	50	450	675	100	450	675	50	475	675	100	475	675	50	475	650	100	475	650	50	450	650	100	450	650	50	450	650	100	450	650	50	475	650	100	475	650	50	475	625	100	475	625	50	450	625	100	450	625	50	475	650	100	475	650	50	500	650	100	500	650	50	500	625	100	500	625	50	475	625	100	475	625	50	475	625	100	475	625	50	500	625	100	500	625	50	500	600	100	500	600	50	475	600	100	475	600	50	450	625	100	450	625	50	475	625	100	475	625	50	475	600	100	475	600	50	450	600	100	450	600	50	400	650	100	400	650	50	425	650	100	425	650	50	425	625	100	425	625	50	400	625	100	400	625	50	425	650	100	425	650	50	450	650	100	450	650	50	450	625	100	450	625	50	425	625	100	425	625	50	425	625	100	425	625	50	450	625	100	450	625	50	450	600	100	450	600	50	425	600	100	425	600	50	400	625	100	400	625	50	425	625	100	425	625	50	425	600	100	425	600	50	400	600	100	400	600	50	500	700	100	500	700	50	525	700	100	525	700	50	525	675	100	525	675	50	500	675	100	500	675	50	525	700	100	525	700	50	550	700	100	550	700	50	550	675	100	550	675	50	525	675	100	525	675	50	525	675	100	525	675	50	550	675	100	550	675	50	550	650	100	550	650	50	525	650	100	525	650	50	500	675	100	500	675	50	525	675	100	525	675	50	525	650	100	525	650	50	500	650	100	500	650	50	550	700	100	550	700	50	575	700	100	575	700	50	575	675	100	575	675	50	550	675	100	550	675	50	575	700	100	575	700	50	600	700	100	600	700	50	600	675	100	600	675	50	575	675	100	575	675	50	575	675	100	575	675	50	600	675	100	600	675	50	600	650	100	600	650	50	575	650	100	575	650	50	550	675	100	550	675	50	575	675	100	575	675	50	575	650	100	575	650	50	550	650	100	550	650	50	550	650	100	550	650	50	575	650	100	575	650	50	575	625	100	575	625	50	550	625	100	550	625	50	575	650	100	575	650	50	600	650	100	600	650	50	600	625	100	600	625	50	575	625	100	575	625	50	575	625	100	575	625	50	600	625	100	600	625	50	600	600	100	600	600	50	575	600	100	575	600	50	550	625	100	550	625	50	575	625	100	575	625	50	575	600	100	575	600	50	550	600	100	550	600	50	500	650	100	500	650	50	525	650	100	525	650	50	525	625	100	525	625	50	500	625	100	500	625	50	525	650	100	525	650	50	550	650	100	550	650	50	550	625	100	550	625	50	525	625	100	525	625	50	525	625	100	525	625	50	550	625	100	550	625	50	550	600	100	550	600	50	525	600	100	525	600	50	500	625	100	500	625	50	525	625	100	525	625	50	525	600	100	525	600	50	500	600	100	500	600	50	600	700	100	600	700	50	625	700	100	625	700	50	625	675	100	625	675	50	600	675	100	600	675	50	625	700	100	625	700	50	650	700	100	650	700	50	650	675	100	650	675	50	625	675	100	625	675	50	625	675	100	625	675	50	650	675	100	650	675	50	650	650	100	650	650	50	625	650	100	625	650	50	600	675	100	600	675	50	625	675	100	625	675	50	625	650	100	625	650	50	600	650	100	600	650	50	650	700	100	650	700	50	675	700	100	675	700	50	675	675	100	675	675	50	650	675	100	650	675	50	675	700	100	675	700	50	700	700	100	700	700	50	700	675	100	700	675	50	675	675	100	675	675	50	675	675	100	675	675	50	700	675	100	700	675	50	700	650	100	700	650	50	675	650	100	675	650	50	650	675	100	650	675	50	675	675	100	675	675	50	675	650	100	675	650	50	650	650	100	650	650	50	650	650	100	650	650	50	675	650	100	675	650	50	675	625	100	675	625	50	650	625	100	650	625	50	675	650	100	675	650	50	700	650	100	700	650	50	700	625	100	700	625	50	
[...]
<CellData Scalars="scalars">
<DataArray type="Int32" Name="nodeid" format="ascii">1	2	3	4	5	6	7	8	9	10	11	12	13	14	15	16	17	18	19	20	21	22	23	201	202	204	203	205	206	208	207	209	210	212	211	213	214	216	215	28	29	30	31	32	217	218	220	219	225	226	228	227	229	230	232	231	237	238	240	239	233	234	236	235	245	246	248	247	249	250	252	251	257	258	260	259	253	254	256	255	265	266	268	267	269	270	272	271	277	278	280	279	273	274	276	275	285	286	288	287	289	290	292	291	297	298	300	299	293	294	296	295	301	302	304	303	39	40	41	42	305	306	308	307	313	314	316	315	317	318	320	319	325	326	328	327	321	322	324	323	333	334	336	335	337	338	340	339	345	346	348	347	341	342	344	343	353	354	356	355	357	358	360	359	365	366	368	367	361	362	364	363	373	374	376	375	377	378	380	379	385	386	388	387	381	382	384	383	389	390	392	391	49	50	51	52	393	394	396	395	401	402	404	403	405	406	408	407	413	414	416	415	409	410	412	411	421	422	424	423	425	426	428	427	433	434	436	435	429	430	432	431	441	442	444	443	445	446	448	447	453	454	456	455	449	450	452	451	461	462	464	463	465	466	468	467	473	474	476	475	469	470	472	471	477	478	480	479	59	60	61	62	481	482	484	483	489	490	492	491	493	494	496	495	501	502	504	503	497	498	500	499	509	510	512	511	513	514	516	515	521	522	524	523	517	518	520	519	529	530	532	531	533	534	536	535	541	542	544	543	537	538	540	539	549	550	552	551	553	554	556	555	561	562	564	563	557	558	560	559	565	566	568	567	69	70	71	72	73	569	570	572	571	573	574	576	575	577	578	580	579	581	582	584	583	78	79	80	81	82	83	84	85	86	87	88	89	90	91	92	93	94	95	96	97	98	99	100	101	102	103	104	105	106	107	108	109	110	111	112	113	114	115	116	117	118	119	120	121	122	123	585	586	588	587	589	590	592	591	593	594	596	595	597	598	600	599	128	129	130	131	132	601	602	604	603	609	610	612	611	613	614	616	615	621	622	624	623	617	618	620	619	629	630	632	631	633	634	636	635	641	642	644	643	637	638	640	639	649	650	652	651	653	654	656	655	661	662	664	663	657	658	660	659	669	670	672	671	673	674	676	675	681	682	684	683	677	678	680	679	685	686	688	687	139	140	141	142	689	690	692	691	697	698	700	699	701	702	704	703	709	710	712	711	705	706	708	707	717	718	720	719	721	722	724	723	729	730	732	731	725	726	728	727	737	738	740	739	741	742	744	743	749	750	752	751	745	746	748	747	757	758	760	759	761	762	764	763	769	770	772	771	765	766	768	767	773	774	776	775	149	150	151	152	777	778	780	779	785	786	788	787	789	790	792	791	797	798	800	799	793	794	796	795	805	806	808	807	809	810	812	811	817	818	820	819	813	814	816	815	825	826	828	827	829	830	832	831	837	838	840	839	833	834	836	835	845	846	848	847	849	850	852	851	857	858	860	859	853	854	856	855	861	862	864	863	159	160	161	162	865	866	868	867	873	874	876	875	877	878	880	879	885	886	888	887	881	882	884	883	893	894	896	895	897	898	900	899	905	906	908	907	901	902	904	903	913	914	916	915	917	918	920	919	925	926	928	927	921	922	924	923	933	934	936	935	937	938	940	939	945	946	948	947	941	942	944	943	949	950	952	951	169	170	171	172	173	953	954	956	955	957	958	960	959	961	962	964	963	965	966	968	967	178	179	180	181	182	183	184	185	186	187	188	189	190	191	192	193	194	195	196	197	198	199	200	</DataArray>
<DataArray type="Int32" Name="nodenumber" format="ascii">1	2	3	4	5	6	7	8	9	10	11	12	13	14	15	16	17	18	19	20	21	22	23	24	25	27	26	28	29	31	30	32	33	35	34	36	37	39	38	40	41	42	43	44	45	46	48	47	49	50	52	51	53	54	56	55	61	62	64	63	57	58	60	59	65	66	68	67	69	70	72	71	77	78	80	79	73	74	76	75	81	82	84	83	85	86	88	87	93	94	96	95	89	90	92	91	97	98	100	99	101	102	104	103	109	110	112	111	105	106	108	107	113	114	116	115	117	118	119	120	121	122	124	123	125	126	128	127	129	130	132	131	137	138	140	139	133	134	136	135	141	142	144	143	145	146	148	147	153	154	156	155	149	150	152	151	157	158	160	159	161	162	164	163	169	170	172	171	165	166	168	167	173	174	176	175	177	178	180	179	185	186	188	187	181	182	184	183	189	190	192	191	193	194	195	196	197	198	200	199	201	202	204	203	205	206	208	207	213	214	216	215	209	210	212	211	217	218	220	219	221	222	224	223	229	230	232	231	225	226	228	227	233	234	236	235	237	238	240	239	245	246	248	247	241	242	244	243	249	250	252	251	253	254	256	255	261	262	264	263	257	258	260	259	265	266	268	267	269	270	271	272	273	274	276	275	277	278	280	279	281	282	284	283	289	290	292	291	285	286	288	287	293	294	296	295	297	298	300	299	305	306	308	307	301	302	304	303	309	310	312	311	313	314	316	315	321	322	324	323	317	318	320	319	325	326	328	327	329	330	332	331	337	338	340	339	333	334	336	335	341	342	344	343	345	346	347	348	349	350	351	353	352	354	355	357	356	358	359	361	360	362	363	365	364	366	367	368	369	370	371	372	373	374	375	376	377	378	379	380	381	382	383	384	385	386	387	388	389	390	391	392	393	394	395	396	397	398	399	400	401	402	403	404	405	406	407	408	409	410	411	412	413	415	414	416	417	419	418	420	421	423	422	424	425	427	426	428	429	430	431	432	433	434	436	435	437	438	440	439	441	442	444	443	449	450	452	451	445	446	448	447	453	454	456	455	457	458	460	459	465	466	468	467	461	462	464	463	469	470	472	471	473	474	476	475	481	482	484	483	477	478	480	479	485	486	488	487	489	490	492	491	497	498	500	499	493	494	496	495	501	502	504	503	505	506	507	508	509	510	512	511	513	514	516	515	517	518	520	519	525	526	528	527	521	522	524	523	529	530	532	531	533	534	536	535	541	542	544	543	537	538	540	539	545	546	548	547	549	550	552	551	557	558	560	559	553	554	556	555	561	562	564	563	565	566	568	567	573	574	576	575	569	570	572	571	577	578	580	579	581	582	583	584	585	586	588	587	589	590	592	591	593	594	596	595	601	602	604	603	597	598	600	599	605	606	608	607	609	610	612	611	617	618	620	619	613	614	616	615	621	622	624	623	625	626	628	627	633	634	636	635	629	630	632	631	637	638	640	639	641	642	644	643	649	650	652	651	645	646	648	647	653	654	656	655	657	658	659	660	661	662	664	663	665	666	668	667	669	670	672	671	677	678	680	679	673	674	676	675	681	682	684	683	685	686	688	687	693	694	696	695	689	690	692	691	697	698	700	699	701	702	704	703	709	710	712	711	705	706	708	707	713	714	716	715	717	718	720	719	725	726	728	727	721	722	724	723	729	730	732	731	733	734	735	736	737	738	739	741	740	742	743	745	744	746	747	749	748	750	751	753	752	754	755	756	757	758	759	760	761	762	763	764	765	766	767	768	769	770	771	772	773	774	775	776	</DataArray>
<DataArray type="Int32" Name="layer" format="ascii">1	1	1	1	1	1	1	1	1	1	1	1	1	1	1	1	1	1	1	1	1	1	1	1	1	1	1	1	1	1	1	1	1	1	1	1	1	1	1	1	1	1	1	1	1	1	1	1	1	1	1	1	1	1	1	1	1	1	1	1	1	1	1	1	1	1	1	1	1	1	1	1	1	1	1	1	1	1	1	1	1	1	1	1	1	1	1	1	1	1	1	1	1	1	1	1	1	1	1	1	1	1	1	1	1	1	1	1	1	1	1	1	1	1	1	1	1	1	1	1	1	1	1	1	1	1	1	1	1	1	1	1	1	1	1	1	1	1	1	1	1	1	1	1	1	1	1	1	1	1	1	1	1	1	1	1	1	1	1	1	1	1	1	1	1	1	1	1	1	1	1	1	1	1	1	1	1	1	1	1	1	1	1	1	1	1	1	1	1	1	1	1	1	1	1	1	1	1	1	1	1	1	1	1	1	1	1	1	1	1	1	1	1	1	1	1	1	1	1	1	1	1	1	1	1	1	1	1	1	1	1	1	1	1	1	1	1	1	1	1	1	1	1	1	1	1	1	1	1	1	1	1	1	1	1	1	1	1	1	1	1	1	1	1	1	1	1	1	1	1	1	1	1	1	1	1	1	1	1	1	1	1	1	1	1	1	1	1	1	1	1	1	1	1	1	1	1	1	1	1	1	1	1	1	1	1	1	1	1	1	1	1	1	1	1	1	1	1	1	1	1	1	1	1	1	1	1	1	1	1	1	1	1	1	1	1	1	1	1	1	1	1	1	1	1	1	1	1	1	1	1	1	1	1	1	1	1	1	1	1	1	1	1	1	1	1	1	1	1	1	1	1	1	1	1	1	1	1	1	1	1	1	1	1	1	1	1	1	2	2	2	2	2	2	2	2	2	2	2	2	2	2	2	2	2	2	2	2	2	2	2	2	2	2	2	2	2	2	2	2	2	2	2	2	2	2	2	2	2	2	2	2	2	2	2	2	2	2	2	2	2	2	2	2	2	2	2	2	2	2	2	2	2	2	2	2	2	2	2	2	2	2	2	2	2	2	2	2	2	2	2	2	2	2	2	2	2	2	2	2	2	2	2	2	2	2	2	2	2	2	2	2	2	2	2	2	2	2	2	2	2	2	2	2	2	2	2	2	2	2	2	2	2	2	2	2	2	2	2	2	2	2	2	2	2	2	2	2	2	2	2	2	2	2	2	2	2	2	2	2	2	2	2	2	2	2	2	2	2	2	2	2	2	2	2	2	2	2	2	2	2	2	2	2	2	2	2	2	2	2	2	2	2	2	2	2	2	2	2	2	2	2	2	2	2	2	2	2	2	2	2	2	2	2	2	2	2	2	2	2	2	2	2	2	2	2	2	2	2	2	2	2	2	2	2	2	2	2	2	2	2	2	2	2	2	2	2	2	2	2	2	2	2	2	2	2	2	2	2	2	2	2	2	2	2	2	2	2	2	2	2	2	2	2	2	2	2	2	2	2	2	2	2	2	2	2	2	2	2	2	2	2	2	2	2	2	2	2	2	2	2	2	2	2	2	2	2	2	2	2	2	2	2	2	2	2	2	2	2	2	2	2	2	2	2	2	2	2	2	2	2	2	2	2	2	2	2	2	2	2	2	2	2	2	2	2	2	2	2	2	2	2	2	2	2	2	2	2	2	2	2	2	2	2	2	2	2	2	2	2	2	2	2	2	2	2	2	2	2	2	2	2	2	2	2	2	2	2	2	2	2	2	2	2	2	2	</DataArray>
<DataArray type="Int32" Name="row" format="ascii">1	1	1	1	1	1	1	1	1	1	2	2	2	2	2	2	2	2	2	2	3	3	3	3	3	3	3	3	3	3	3	3	3	3	3	3	3	3	3	3	3	3	4	4	4	4	4	4	4	4	4	4	4	4	4	4	4	4	4	4	4	4	4	4	4	4	4	4	4	4	4	4	4	4	4	4	4	4	4	4	4	4	4	4	4	4	4	4	4	4	4	4	4	4	4	4	4	4	4	4	4	4	4	4	4	4	4	4	4	4	4	4	4	4	4	4	4	4	5	5	5	5	5	5	5	5	5	5	5	5	5	5	5	5	5	5	5	5	5	5	5	5	5	5	5	5	5	5	5	5	5	5	5	5	5	5	5	5	5	5	5	5	5	5	5	5	5	5	5	5	5	5	5	5	5	5	5	5	5	5	5	5	5	5	5	5	5	5	5	5	5	5	5	5	6	6	6	6	6	6	6	6	6	6	6	6	6	6	6	6	6	6	6	6	6	6	6	6	6	6	6	6	6	6	6	6	6	6	6	6	6	6	6	6	6	6	6	6	6	6	6	6	6	6	6	6	6	6	6	6	6	6	6	6	6	6	6	6	6	6	6	6	6	6	6	6	6	6	6	6	7	7	7	7	7	7	7	7	7	7	7	7	7	7	7	7	7	7	7	7	7	7	7	7	7	7	7	7	7	7	7	7	7	7	7	7	7	7	7	7	7	7	7	7	7	7	7	7	7	7	7	7	7	7	7	7	7	7	7	7	7	7	7	7	7	7	7	7	7	7	7	7	7	7	7	7	8	8	8	8	8	8	8	8	8	8	8	8	8	8	8	8	8	8	8	8	8	8	9	9	9	9	9	9	9	9	9	9	10	10	10	10	10	10	10	10	10	10	1	1	1	1	1	1	1	1	1	1	2	2	2	2	2	2	2	2	2	2	3	3	3	3	3	3	3	3	3	3	3	3	3	3	3	3	3	3	3	3	3	3	4	4	4	4	4	4	4	4	4	4	4	4	4	4	4	4	4	4	4	4	4	4	4	4	4	4	4	4	4	4	4	4	4	4	4	4	4	4	4	4	4	4	4	4	4	4	4	4	4	4	4	4	4	4	4	4	4	4	4	4	4	4	4	4	4	4	4	4	4	4	4	4	4	4	4	4	5	5	5	5	5	5	5	5	5	5	5	5	5	5	5	5	5	5	5	5	5	5	5	5	5	5	5	5	5	5	5	5	5	5	5	5	5	5	5	5	5	5	5	5	5	5	5	5	5	5	5	5	5	5	5	5	5	5	5	5	5	5	5	5	5	5	5	5	5	5	5	5	5	5	5	5	6	6	6	6	6	6	6	6	6	6	6	6	6	6	6	6	6	6	6	6	6	6	6	6	6	6	6	6	6	6	6	6	6	6	6	6	6	6	6	6	6	6	6	6	6	6	6	6	6	6	6	6	6	6	6	6	6	6	6	6	6	6	6	6	6	6	6	6	6	6	6	6	6	6	6	6	7	7	7	7	7	7	7	7	7	7	7	7	7	7	7	7	7	7	7	7	7	7	7	7	7	7	7	7	7	7	7	7	7	7	7	7	7	7	7	7	7	7	7	7	7	7	7	7	7	7	7	7	7	7	7	7	7	7	7	7	7	7	7	7	7	7	7	7	7	7	7	7	7	7	7	7	8	8	8	8	8	8	8	8	8	8	8	8	8	8	8	8	8	8	8	8	8	8	9	9	9	9	9	9	9	9	9	9	10	10	10	10	10	10	10	10	10	10	</DataArray>
<DataArray type="Int32" Name="col" format="ascii">1	2	3	4	5	6	7	8	9	10	1	2	3	4	5	6	7	8	9	10	1	2	3	4	4	4	4	5	5	5	5	6	6	6	6	7	7	7	7	8	9	10	1	2	3	3	3	3	4	4	4	4	4	4	4	4	4	4	4	4	4	4	4	4	5	5	5	5	5	5	5	5	5	5	5	5	5	5	5	5	6	6	6	6	6	6	6	6	6	6	6	6	6	6	6	6	7	7	7	7	7	7	7	7	7	7	7	7	7	7	7	7	8	8	8	8	9	10	1	2	3	3	3	3	4	4	4	4	4	4	4	4	4	4	4	4	4	4	4	4	5	5	5	5	5	5	5	5	5	5	5	5	5	5	5	5	6	6	6	6	6	6	6	6	6	6	6	6	6	6	6	6	7	7	7	7	7	7	7	7	7	7	7	7	7	7	7	7	8	8	8	8	9	10	1	2	3	3	3	3	4	4	4	4	4	4	4	4	4	4	4	4	4	4	4	4	5	5	5	5	5	5	5	5	5	5	5	5	5	5	5	5	6	6	6	6	6	6	6	6	6	6	6	6	6	6	6	6	7	7	7	7	7	7	7	7	7	7	7	7	7	7	7	7	8	8	8	8	9	10	1	2	3	3	3	3	4	4	4	4	4	4	4	4	4	4	4	4	4	4	4	4	5	5	5	5	5	5	5	5	5	5	5	5	5	5	5	5	6	6	6	6	6	6	6	6	6	6	6	6	6	6	6	6	7	7	7	7	7	7	7	7	7	7	7	7	7	7	7	7	8	8	8	8	9	10	1	2	3	4	4	4	4	5	5	5	5	6	6	6	6	7	7	7	7	8	9	10	1	2	3	4	5	6	7	8	9	10	1	2	3	4	5	6	7	8	9	10	1	2	3	4	5	6	7	8	9	10	1	2	3	4	5	6	7	8	9	10	1	2	3	4	4	4	4	5	5	5	5	6	6	6	6	7	7	7	7	8	9	10	1	2	3	3	3	3	4	4	4	4	4	4	4	4	4	4	4	4	4	4	4	4	5	5	5	5	5	5	5	5	5	5	5	5	5	5	5	5	6	6	6	6	6	6	6	6	6	6	6	6	6	6	6	6	7	7	7	7	7	7	7	7	7	7	7	7	7	7	7	7	8	8	8	8	9	10	1	2	3	3	3	3	4	4	4	4	4	4	4	4	4	4	4	4	4	4	4	4	5	5	5	5	5	5	5	5	5	5	5	5	5	5	5	5	6	6	6	6	6	6	6	6	6	6	6	6	6	6	6	6	7	7	7	7	7	7	7	7	7	7	7	7	7	7	7	7	8	8	8	8	9	10	1	2	3	3	3	3	4	4	4	4	4	4	4	4	4	4	4	4	4	4	4	4	5	5	5	5	5	5	5	5	5	5	5	5	5	5	5	5	6	6	6	6	6	6	6	6	6	6	6	6	6	6	6	6	7	7	7	7	7	7	7	7	7	7	7	7	7	7	7	7	8	8	8	8	9	10	1	2	3	3	3	3	4	4	4	4	4	4	4	4	4	4	4	4	4	4	4	4	5	5	5	5	5	5	5	5	5	5	5	5	5	5	5	5	6	6	6	6	6	6	6	6	6	6	6	6	6	6	6	6	7	7	7	7	7	7	7	7	7	7	7	7	7	7	7	7	8	8	8	8	9	10	1	2	3	4	4	4	4	5	5	5	5	6	6	6	6	7	7	7	7	8	9	10	1	2	3	4	5	6	7	8	9	10	1	2	3	4	5	6	7	8	9	10	</DataArray>
<DataArray type="Int32" Name="vtkid" format="ascii">8	16	24	32	40	48	56	64	72	80	88	96	104	112	120	128	136	144	152	160	168	176	184	192	200	208	216	224	232	240	248	256	264	272	280	288	296	304	312	320	328	336	344	352	360	368	376	384	392	400	408	416	424	432	440	448	456	464	472	480	488	496	504	512	520	528	536	544	552	560	568	576	584	592	600	608	616	624	632	640	648	656	664	672	680	688	696	704	712	720	728	736	744	752	760	768	776	784	792	800	808	816	824	832	840	848	856	864	872	880	888	896	904	912	920	928	936	944	952	960	968	976	984	992	1000	1008	1016	1024	1032	1040	1048	1056	1064	1072	1080	1088	1096	1104	1112	1120	1128	1136	1144	1152	1160	1168	1176	1184	1192	1200	1208	1216	1224	1232	1240	1248	1256	1264	1272	1280	1288	1296	1304	1312	1320	1328	1336	1344	1352	1360	1368	1376	1384	1392	1400	1408	1416	1424	1432	1440	1448	1456	1464	1472	1480	1488	1496	1504	1512	1520	1528	1536	1544	1552	1560	1568	1576	1584	1592	1600	1608	1616	1624	1632	1640	1648	1656	1664	1672	1680	1688	1696	1704	1712	1720	1728	1736	1744	1752	1760	1768	1776	1784	1792	1800	1808	1816	1824	1832	1840	1848	1856	1864	1872	1880	1888	1896	1904	1912	1920	1928	1936	1944	1952	1960	1968	1976	1984	1992	2000	2008	2016	2024	2032	2040	2048	2056	2064	2072	2080	2088	2096	2104	2112	2120	2128	2136	2144	2152	2160	2168	2176	2184	2192	2200	2208	2216	2224	2232	2240	2248	2256	2264	2272	2280	2288	2296	2304	2312	2320	2328	2336	2344	2352	2360	2368	2376	2384	2392	2400	2408	2416	2424	2432	2440	2448	2456	2464	2472	2480	2488	2496	2504	2512	2520	2528	2536	2544	2552	2560	2568	2576	2584	2592	2600	2608	2616	2624	2632	2640	2648	2656	2664	2672	2680	2688	2696	2704	2712	2720	2728	2736	2744	2752	2760	2768	2776	2784	2792	2800	2808	2816	2824	2832	2840	2848	2856	2864	2872	2880	2888	2896	2904	2912	2920	2928	2936	2944	2952	2960	2968	2976	2984	2992	3000	3008	3016	3024	3032	3040	3048	3056	3064	3072	3080	3088	3096	3104	3112	3120	3128	3136	3144	3152	3160	3168	3176	3184	3192	3200	3208	3216	3224	3232	3240	3248	3256	3264	3272	3280	3288	3296	3304	3312	3320	3328	3336	3344	3352	3360	3368	3376	3384	3392	3400	3408	3416	3424	3432	3440	3448	3456	3464	3472	3480	3488	3496	3504	3512	3520	3528	3536	3544	3552	3560	3568	3576	3584	3592	3600	3608	3616	3624	3632	3640	3648	3656	3664	3672	3680	3688	3696	3704	3712	3720	3728	3736	3744	3752	3760	3768	3776	3784	3792	3800	3808	3816	3824	3832	3840	3848	3856	3864	3872	3880	3888	3896	3904	3912	3920	3928	3936	3944	3952	3960	3968	3976	3984	3992	4000	4008	4016	4024	4032	4040	4048	4056	4064	4072	4080	4088	4096	4104	4112	4120	4128	4136	4144	4152	4160	4168	4176	4184	4192	4200	4208	4216	4224	4232	4240	4248	4256	4264	4272	4280	4288	4296	4304	4312	4320	4328	4336	4344	4352	4360	4368	4376	4384	4392	4400	4408	4416	4424	4432	4440	4448	4456	4464	4472	4480	4488	4496	4504	4512	4520	4528	4536	4544	4552	4560	4568	4576	4584	4592	4600	4608	4616	4624	4632	4640	4648	4656	4664	4672	4680	4688	4696	4704	4712	4720	4728	4736	4744	4752	4760	4768	4776	4784	4792	4800	4808	4816	4824	4832	4840	4848	4856	4864	4872	4880	4888	4896	4904	4912	4920	4928	4936	4944	4952	4960	4968	4976	4984	4992	5000	5008	5016	5024	5032	5040	5048	5056	5064	5072	5080	5088	5096	5104	5112	5120	5128	5136	5144	5152	5160	5168	5176	5184	5192	5200	5208	5216	5224	5232	5240	5248	5256	5264	5272	5280	5288	5296	5304	5312	5320	5328	5336	5344	5352	5360	5368	5376	5384	5392	5400	5408	5416	5424	5432	5440	5448	5456	5464	5472	5480	5488	5496	5504	5512	5520	5528	5536	5544	5552	5560	5568	5576	5584	5592	5600	5608	5616	5624	5632	5640	5648	5656	5664	5672	5680	5688	5696	5704	5712	5720	5728	5736	5744	5752	5760	5768	5776	5784	5792	5800	5808	5816	5824	5832	5840	5848	5856	5864	5872	5880	5888	5896	5904	5912	5920	5928	5936	5944	5952	5960	5968	5976	5984	5992	6000	6008	6016	6024	6032	6040	6048	6056	6064	6072	6080	6088	6096	6104	6112	6120	6128	6136	6144	6152	6160	6168	6176	6184	6192	6200	6208	</DataArray>
<DataArray type="Float64" Name="top" format="ascii">100	100	100	100	100	100	100	100	100	100	100	100	100	100	100	100	100	100	100	100	100	100	100	100	100	100	100	100	100	100	100	100	100	100	100	100	100	100	100	100	100	100	100	100	100	100	100	100	100	100	100	100	100	100	100	100	100	100	100	100	100	100	100	100	100	100	100	100	100	100	100	100	100	100	100	100	100	100	100	100	100	100	100	100	100	100	100	100	100	100	100	100	100	100	100	100	100	100	100	100	100	100	100	100	100	100	100	100	100	100	100	100	100	100	100	100	100	100	100	100	100	100	100	100	100	100	100	100	100	100	100	100	100	100	100	100	100	100	100	100	100	100	100	100	100	100	100	100	100	100	100	100	100	100	100	100	100	100	100	100	100	100	100	100	100	100	100	100	100	100	100	100	100	100	100	100	100	100	100	100	100	100	100	100	100	100	100	100	100	100	100	100	100	100	100	100	100	100	100	100	100	100	100	100	100	100	100	100	100	100	100	100	100	100	100	100	100	100	100	100	100	100	100	100	100	100	100	100	100	100	100	100	100	100	100	100	100	100	100	100	100	100	100	100	100	100	100	100	100	100	100	100	100	100	100	100	100	100	100	100	100	100	100	100	100	100	100	100	100	100	100	100	100	100	100	100	100	100	100	100	100	100	100	100	100	100	100	100	100	100	100	100	100	100	100	100	100	100	100	100	100	100	100	100	100	100	100	100	100	100	100	100	100	100	100	100	100	100	100	100	100	100	100	100	100	100	100	100	100	100	100	100	100	100	100	100	100	100	100	100	100	100	100	100	100	100	100	100	100	100	100	100	100	100	100	100	100	100	100	100	100	100	100	100	100	100	100	100	100	100	100	100	100	100	100	100	100	100	100	100	100	100	100	100	100	100	100	100	50	50	50	50	50	50	50	50	50	50	50	50	50	50	50	50	50	50	50	50	50	50	50	50	50	50	50	50	50	50	50	50	50	50	50	50	50	50	50	50	50	50	50	50	50	50	50	50	50	50	50	50	50	50	50	50	50	50	50	50	50	50	50	50	50	50	50	50	50	50	50	50	50	50	50	50	50	50	50	50	50	50	50	50	50	50	50	50	50	50	50	50	50	50	50	50	50	50	50	50	50	50	50	50	50	50	50	50	50	50	50	50	50	50	50	50	50	50	50	50	50	50	50	50	50	50	50	50	50	50	50	50	50	50	50	50	50	50	50	50	50	50	50	50	50	50	50	50	50	50	50	50	50	50	50	50	50	50	50	50	50	50	50	50	50	50	50	50	50	50	50	50	50	50	50	50	50	50	50	50	50	50	50	50	50	50	50	50	50	50	50	50	50	50	50	50	50	50	50	50	50	50	50	50	50	50	50	50	50	50	50	50	50	50	50	50	50	50	50	50	50	50	50	50	50	50	50	50	50	50	50	50	50	50	50	50	50	50	50	50	50	50	50	50	50	50	50	50	50	50	50	50	50	50	50	50	50	50	50	50	50	50	50	50	50	50	50	50	50	50	50	50	50	50	50	50	50	50	50	50	50	50	50	50	50	50	50	50	50	50	50	50	50	50	50	50	50	50	50	50	50	50	50	50	50	50	50	50	50	50	50	50	50	50	50	50	50	50	50	50	50	50	50	50	50	50	50	50	50	50	50	50	50	50	50	50	50	50	50	50	50	50	50	50	50	50	50	50	50	50	50	50	50	50	50	50	50	50	50	50	50	50	50	50	50	50	50	50	50	50	50	50	50	50	50	50	50	50	50	50	50	50	50	50	50	50	50	50	</DataArray>
<DataArray type="Float64" Name="bottom" format="ascii">50	50	50	50	50	50	50	50	50	50	50	50	50	50	50	50	50	50	50	50	50	50	50	50	50	50	50	50	50	50	50	50	50	50	50	50	50	50	50	50	50	50	50	50	50	50	50	50	50	50	50	50	50	50	50	50	50	50	50	50	50	50	50	50	50	50	50	50	50	50	50	50	50	50	50	50	50	50	50	50	50	50	50	50	50	50	50	50	50	50	50	50	50	50	50	50	50	50	50	50	50	50	50	50	50	50	50	50	50	50	50	50	50	50	50	50	50	50	50	50	50	50	50	50	50	50	50	50	50	50	50	50	50	50	50	50	50	50	50	50	50	50	50	50	50	50	50	50	50	50	50	50	50	50	50	50	50	50	50	50	50	50	50	50	50	50	50	50	50	50	50	50	50	50	50	50	50	50	50	50	50	50	50	50	50	50	50	50	50	50	50	50	50	50	50	50	50	50	50	50	50	50	50	50	50	50	50	50	50	50	50	50	50	50	50	50	50	50	50	50	50	50	50	50	50	50	50	50	50	50	50	50	50	50	50	50	50	50	50	50	50	50	50	50	50	50	50	50	50	50	50	50	50	50	50	50	50	50	50	50	50	50	50	50	50	50	50	50	50	50	50	50	50	50	50	50	50	50	50	50	50	50	50	50	50	50	50	50	50	50	50	50	50	50	50	50	50	50	50	50	50	50	50	50	50	50	50	50	50	50	50	50	50	50	50	50	50	50	50	50	50	50	50	50	50	50	50	50	50	50	50	50	50	50	50	50	50	50	50	50	50	50	50	50	50	50	50	50	50	50	50	50	50	50	50	50	50	50	50	50	50	50	50	50	50	50	50	50	50	50	50	50	50	50	50	50	50	50	50	50	50	50	50	50	50	50	50	50	0	0	0	0	0	0	0	0	0	0	0	0	0	0	0	0	0	0	0	0	0	0	0	0	0	0	0	0	0	0	0	0	0	0	0	0	0	0	0	0	0	0	0	0	0	0	0	0	0	0	0	0	0	0	0	0	0	0	0	0	0	0	0	0	0	0	0	0	0	0	0	0	0	0	0	0	0	0	0	0	0	0	0	0	0	0	0	0	0	0	0	0	0	0	0	0	0	0	0	0	0	0	0	0	0	0	0	0	0	0	0	0	0	0	0	0	0	0	0	0	0	0	0	0	0	0	0	0	0	0	0	0	0	0	0	0	0	0	0	0	0	0	0	0	0	0	0	0	0	0	0	0	0	0	0	0	0	0	0	0	0	0	0	0	0	0	0	0	0	0	0	0	0	0	0	0	0	0	0	0	0	0	0	0	0	0	0	0	0	0	0	0	0	0	0	0	0	0	0	0	0	0	0	0	0	0	0	0	0	0	0	0	0	0	0	0	0	0	0	0	0	0	0	0	0	0	0	0	0	0	0	0	0	0	0	0	0	0	0	0	0	0	0	0	0	0	0	0	0	0	0	0	0	0	0	0	0	0	0	0	0	0	0	0	0	0	0	0	0	0	0	0	0	0	0	0	0	0	0	0	0	0	0	0	0	0	0	0	0	0	0	0	0	0	0	0	0	0	0	0	0	0	0	0	0	0	0	0	0	0	0	0	0	0	0	0	0	0	0	0	0	0	0	0	0	0	0	0	0	0	0	0	0	0	0	0	0	0	0	0	0	0	0	0	0	0	0	0	0	0	0	0	0	0	0	0	0	0	0	0	0	0	0	0	0	0	0	0	0	0	0	0	0	0	0	0	0	0	0	0	0	0	0	0	0	0	0	0	</DataArray>