<?xml version="1.0"?>
<VTKFile type="UnstructuredGrid" version="0.1" byte_order="BigEndian">
<UnstructuredGrid GhostLevel="0">
<Piece NumberOfPoints="1311" NumberOfCells="776" ><Points>
<DataArray type="Float32" NumberOfComponents="3" format="ascii">
0	1000	100	0	900	100	100	1000	100	100	900	100	0	1000	50	0	900	50	100	1000	50	100	900	50	200	1000	100	200	900	100	200	1000	50	200	900	50	300	1000	100	300	900	100	300	1000	50	300	900	50	400	1000	100	400	900	100	400	1000	50	400	900	50	500	1000	100	500	900	100	500	1000	50	500	900	50	600	1000	100	600	900	100	600	1000	50	600	900	50	700	1000	100	700	900	100	700	1000	50	700	900	50	800	1000	100	800	900	100	800	1000	50	800	900	50	900	1000	100	900	900	100	900	1000	50	900	900	50	1000	1000	100	1000	900	100	1000	1000	50	1000	900	50	0	800	100	100	800	100	0	800	50	100	800	50	200	800	100	200	800	50	300	800	100	300	800	50	400	800	100	400	800	50	500	800	100	500	800	50	600	800	100	600	800	50	700	800	100	700	800	50	800	800	100	800	800	50	900	800	100	900	800	50	1000	800	100	1000	800	50	0	700	100	100	700	100	0	700	50	100	700	50	200	700	100	200	700	50	300	700	100	300	700	50	700	700	100	800	700	100	700	700	50	800	700	50	900	700	100	900	700	50	1000	700	100	1000	700	50	0	600	100	100	600	100	0	600	50	100	600	50	200	600	100	200	600	50	800	600	100	900	600	100	800	600	50	900	600	50	1000	600	100	1000	600	50	0	500	100	100	500	100	0	500	50	100	500	50	200	500	100	200	500	50	800	500	100	900	500	100	800	500	50	900	500	50	1000	500	100	1000	500	50	0	400	100	100	400	100	0	400	50	100	400	50	200	400	100	200	400	50	800	400	100	900	400	100	800	400	50	900	400	50	1000	400	100	1000	400	50	0	300	100	100	300	100	0	300	50	100	300	50	200	300	100	200	300	50	800	300	100	900	300	100	800	300	50	900	300	50	1000	300	100	1000	300	50	0	200	100	100	200	100	0	200	50	100	200	50	200	200	100	200	200	50	300	300	100	300	200	100	300	300	50	300	200	50	700	300	100	700	200	100	800	200	100	700	300	50	700	200	50	800	200	50	900	200	100	900	200	50	1000	200	100	1000	200	50	0	100	100	100	100	100	0	100	50	100	100	50	200	100	100	200	100	50	300	100	100	300	100	50	400	200	100	400	100	100	400	200	50	400	100	50	500	200	100	500	100	100	500	200	50	500	100	50	600	200	100	600	100	100	600	200	50	600	100	50	700	100	100	700	100	50	800	100	100	800	100	50	900	100	100	900	100	50	1000	100	100	1000	100	50	0	0	100	100	0	100	0	0	50	100	0	50	200	0	100	200	0	50	300	0	100	300	0	50	400	0	100	400	0	50	500	0	100	500	0	50	600	0	100	600	0	50	700	0	100	700	0	50	800	0	100	800	0	50	900	0	100	900	0	50	1000	0	100	1000	0	50	0	1000	0	0	900	0	100	1000	0	100	900	0	200	1000	0	200	900	0	300	1000	0	300	900	0	400	1000	0	400	900	0	500	1000	0	500	900	0	600	1000	0	600	900	0	700	1000	0	700	900	0	800	1000	0	800	900	0	900	1000	0	900	900	0	1000	1000	0	1000	900	0	0	800	0	100	800	0	200	800	0	300	800	0	400	800	0	500	800	0	600	800	0	700	800	0	800	800	0	900	800	0	1000	800	0	0	700	0	100	700	0	200	700	0	300	700	0	700	700	0	800	700	0	900	700	0	1000	700	0	0	600	0	100	600	0	200	600	0	800	600	0	900	600	0	1000	600	0	0	500	0	100	500	0	200	500	0	800	500	0	900	500	0	1000	500	0	0	400	0	100	400	0	200	400	0	800	400	0	900	400	0	1000	400	0	0	300	0	100	300	0	200	300	0	800	300	0	900	300	0	1000	300	0	0	200	0	100	200	0	200	200	0	300	300	0	300	200	0	700	300	0	700	200	0	800	200	0	900	200	0	1000	200	0	0	100	0	100	100	0	200	100	0	300	100	0	400	200	0	400	100	0	500	200	0	500	100	0	600	200	0	600	100	0	700	100	0	800	100	0	900	100	0	1000	100	0	0	0	0	100	0	0	200	0	0	300	0	0	400	0	0	500	0	0	600	0	0	700	0	0	800	0	0	900	0	0	1000	0	0	300	750	100	350	800	100	350	750	100	300	750	50	350	800	50	350	750	50	400	750	100	400	750	50	350	700	100	350	700	50	400	700	100	400	700	50	450	800	100	450	750	100	450	800	50	450	750	50	500	750	100	500	750	50	450	700	100	450	700	50	500	700	100	500	700	50	550	800	100	550	750	100	550	800	50	550	750	50	600	750	100	600	750	50	550	700	100	550	700	50	600	700	100	600	700	50	650	800	100	650	750	100	650	800	50	650	750	50	700	750	100	700	750	50	650	700	100	650	700	50	200	650	100	250	700	100	250	650	100	200	650	50	250	700	50	250	650	50	300	650	100	300	650	50	250	600	100	250	600	50	300	600	100	300	600	50	300	675	100	325	700	100	325	675	100	300	675	50	325	700	50	325	675	50	350	675	100	350	675	50	325	650	100	325	650	50	350	650	100	350	650	50	375	700	100	375	675	100	375	700	50	375	675	50	400	675	100	400	675	50	375	650	100	375	650	50	400	650	100	400	650	50	300	625	100	325	625	100	300	625	50	325	625	50	350	625	100	350	625	50	325	600	100	325	600	50	350	600	100	350	600	50	375	625	100	375	625	50	400	625	100	400	625	50	375	600	100	375	600	50	400	600	100	400	600	50	425	700	100	425	675	100	425	700	50	425	675	50	450	675	100	450	675	50	425	650	100	425	650	50	450	650	100	450	650	50	475	700	100	475	675	100	475	700	50	475	675	50	500	675	100	500	675	50	475	650	100	475	650	50	500	650	100	500	650	50	425	625	100	425	625	50	450	625	100	450	625	50	425	600	100	425	600	50	450	600	100	450	600	50	475	625	100	475	625	50	500	625	100	500	625	50	475	600	100	475	600	50	500	600	100	500	600	50	525	700	100	525	675	100	525	700	50	525	675	50	550	675	100	550	675	50	525	650	100	525	650	50	550	650	100	550	650	50	575	700	100	575	675	100	575	700	50	575	675	50	600	675	100	600	675	50	575	650	100	575	650	50	600	650	100	600	650	50	525	625	100	525	625	50	550	625	100	550	625	50	525	600	100	525	600	50	550	600	100	550	600	50	575	625	100	575	625	50	600	625	100	600	625	50	575	600	100	575	600	50	600	600	100	600	600	50	625	700	100	625	675	100	625	700	50	625	675	50	650	675	100	650	675	50	625	650	100	625	650	50	650	650	100	650	650	50	675	700	100	675	675	100	675	700	50	675	675	50	700	675	100	700	675	50	675	650	100	675	650	50	700	650	100	700	650	50	625	625	100	625	625	50	650	625	100	650	625	50	625	600	100	625	600	50	650	600	100	650	600	50	675	625	100	675	625	50	700	625	100	700	625	50	675	600	100	675	600	50	700	600	100	700	600	50	750	700	100	750	650	100	750	700	50	750	650	50	800	650	100	800	650	50	750	600	100	750	600	50	200	550	100	250	550	100	200	550	50	250	550	50	300	550	100	300	550	50	250	500	100	250	500	50	300	500	100	300	500	50	300	575	100	325	575	100	300	575	50	325	575	50	350	575	100	350	575	50	325	550	100	325	550	50	350	550	100	350	550	50	375	575	100	375	575	50	400	575	100	400	575	50	375	550	100	375	550	50	400	550	100	400	550	50	300	525	100	325	525	100	300	525	50	325	525	50	350	525	100	350	525	50	325	500	100	325	500	50	350	500	100	350	500	50	375	525	100	375	525	50	400	525	100	400	525	50	375	500	100	375	500	50	400	500	100	400	500	50	425	575	100	425	575	50	450	575	100	450	575	50	425	550	100	425	550	50	450	550	100	450	550	50	475	575	100	475	575	50	500	575	100	500	575	50	475	550	100	475	550	50	500	550	100	500	550	50	425	525	100	425	525	50	450	525	100	450	525	50	425	500	100	425	500	50	450	500	100	450	500	50	475	525	100	475	525	50	500	525	100	500	525	50	475	500	100	475	500	50	500	500	100	500	500	50	525	575	100	525	575	50	550	575	100	550	575	50	525	550	100	525	550	50	550	550	100	550	550	50	575	575	100	575	575	50	600	575	100	600	575	50	575	550	100	575	550	50	600	550	100	600	550	50	525	525	100	525	525	50	550	525	100	550	525	50	525	500	100	525	500	50	550	500	100	550	500	50	575	525	100	575	525	50	600	525	100	600	525	50	575	500	100	575	500	50	600	500	100	600	500	50	625	575	100	625	575	50	650	575	100	650	575	50	625	550	100	625	550	50	650	550	100	650	550	50	675	575	100	675	575	50	700	575	100	700	575	50	675	550	100	675	550	50	700	550	100	700	550	50	625	525	100	625	525	50	650	525	100	650	525	50	625	500	100	625	500	50	650	500	100	650	500	50	675	525	100	675	525	50	700	525	100	700	525	50	675	500	100	675	500	50	700	500	100	700	500	50	750	550	100	750	550	50	800	550	100	800	550	50	750	500	100	750	500	50	200	450	100	250	450	100	200	450	50	250	450	50	300	450	100	300	450	50	250	400	100	250	400	50	300	400	100	300	400	50	300	475	100	325	475	100	300	475	50	325	475	50	350	475	100	350	475	50	325	450	100	325	450	50	350	450	100	350	450	50	375	475	100	375	475	50	400	475	100	400	475	50	375	450	100	375	450	50	400	450	100	400	450	50	300	425	100	325	425	100	300	425	50	325	425	50	350	425	100	350	425	50	325	400	100	325	400	50	350	400	100	350	400	50	375	425	100	375	425	50	400	425	100	400	425	50	375	400	100	375	400	50	400	400	100	400	400	50	425	475	100	425	475	50	450	475	100	450	475	50	425	450	100	425	450	50	450	450	100	450	450	50	475	475	100	475	475	50	500	475	100	500	475	50	475	450	100	475	450	50	500	450	100	500	450	50	425	425	100	425	425	50	450	425	100	450	425	50	425	400	100	425	400	50	450	400	100	450	400	50	475	425	100	475	425	50	500	425	100	500	425	50	475	400	100	475	400	50	500	400	100	500	400	50	525	475	100	525	475	50	550	475	100	550	475	50	525	450	100	525	450	50	550	450	100	550	450	50	575	475	100	575	475	50	600	475	100	600	475	50	575	450	100	575	450	50	600	450	100	600	450	50	525	425	100	525	425	50	550	425	100	550	425	50	525	400	100	525	400	50	550	400	100	550	400	50	575	425	100	575	425	50	600	425	100	600	425	50	575	400	100	575	400	50	600	400	100	600	400	50	625	475	100	625	475	50	650	475	100	650	475	50	625	450	100	625	450	50	650	450	100	650	450	50	675	475	100	675	475	50	700	475	100	700	475	50	675	450	100	675	450	50	700	450	100	700	450	50	625	425	100	625	425	50	650	425	100	650	425	50	625	400	100	625	400	50	650	400	100	650	400	50	675	425	100	675	425	50	700	425	100	700	425	50	675	400	100	675	400	50	700	400	100	700	400	50	750	450	100	750	450	50	800	450	100	800	450	50	750	400	100	750	400	50	200	350	100	250	350	100	200	350	50	250	350	50	300	350	100	300	350	50	250	300	100	250	300	50	300	375	100	325	375	100	300	375	50	325	375	50	350	375	100	350	375	50	325	350	100	325	350	50	350	350	100	350	350	50	375	375	100	375	375	50	400	375	100	400	375	50	375	350	100	375	350	50	400	350	100	400	350	50	300	325	100	325	325	100	300	325	50	325	325	50	350	325	100	350	325	50	325	300	100	325	300	50	350	300	100	350	300	50	375	325	100	375	325	50	400	325	100	400	325	50	375	300	100	375	300	50	400	300	100	400	300	50	425	375	100	425	375	50	450	375	100	450	375	50	425	350	100	425	350	50	450	350	100	450	350	50	475	375	100	475	375	50	500	375	100	500	375	50	475	350	100	475	350	50	500	350	100	500	350	50	425	325	100	425	325	50	450	32
[...]
<CellData Scalars="scalars">
<DataArray type="Int32" Name="nodeid" format="ascii">1	2	3	4	5	6	7	8	9	10	11	12	13	14	15	16	17	18	19	20	21	22	23	201	202	204	203	205	206	208	207	209	210	212	211	213	214	216	215	28	29	30	31	32	217	218	220	219	225	226	228	227	229	230	232	231	237	238	240	239	233	234	236	235	245	246	248	247	249	250	252	251	257	258	260	259	253	254	256	255	265	266	268	267	269	270	272	271	277	278	280	279	273	274	276	275	285	286	288	287	289	290	292	291	297	298	300	299	293	294	296	295	301	302	304	303	39	40	41	42	305	306	308	307	313	314	316	315	317	318	320	319	325	326	328	327	321	322	324	323	333	334	336	335	337	338	340	339	345	346	348	347	341	342	344	343	353	354	356	355	357	358	360	359	365	366	368	367	361	362	364	363	373	374	376	375	377	378	380	379	385	386	388	387	381	382	384	383	389	390	392	391	49	50	51	52	393	394	396	395	401	402	404	403	405	406	408	407	413	414	416	415	409	410	412	411	421	422	424	423	425	426	428	427	433	434	436	435	429	430	432	431	441	442	444	443	445	446	448	447	453	454	456	455	449	450	452	451	461	462	464	463	465	466	468	467	473	474	476	475	469	470	472	471	477	478	480	479	59	60	61	62	481	482	484	483	489	490	492	491	493	494	496	495	501	502	504	503	497	498	500	499	509	510	512	511	513	514	516	515	521	522	524	523	517	518	520	519	529	530	532	531	533	534	536	535	541	542	544	543	537	538	540	539	549	550	552	551	553	554	556	555	561	562	564	563	557	558	560	559	565	566	568	567	69	70	71	72	73	569	570	572	571	573	574	576	575	577	578	580	579	581	582	584	583	78	79	80	81	82	83	84	85	86	87	88	89	90	91	92	93	94	95	96	97	98	99	100	101	102	103	104	105	106	107	108	109	110	111	112	113	114	115	116	117	118	119	120	121	122	123	585	586	588	587	589	590	592	591	593	594	596	595	597	598	600	599	128	129	130	131	132	601	602	604	603	609	610	612	611	613	614	616	615	621	622	624	623	617	618	620	619	629	630	632	631	633	634	636	635	641	642	644	643	637	638	640	639	649	650	652	651	653	654	656	655	661	662	664	663	657	658	660	659	669	670	672	671	673	674	676	675	681	682	684	683	677	678	680	679	685	686	688	687	139	140	141	142	689	690	692	691	697	698	700	699	701	702	704	703	709	710	712	711	705	706	708	707	717	718	720	719	721	722	724	723	729	730	732	731	725	726	728	727	737	738	740	739	741	742	744	743	749	750	752	751	745	746	748	747	757	758	760	759	761	762	764	763	769	770	772	771	765	766	768	767	773	774	776	775	149	150	151	152	777	778	780	779	785	786	788	787	789	790	792	791	797	798	800	799	793	794	796	795	805	806	808	807	809	810	812	811	817	818	820	819	813	814	816	815	825	826	828	827	829	830	832	831	837	838	840	839	833	834	836	835	845	846	848	847	849	850	852	851	857	858	860	859	853	854	856	855	861	862	864	863	159	160	161	162	865	866	868	867	873	874	876	875	877	878	880	879	885	886	888	887	881	882	884	883	893	894	896	895	897	898	900	899	905	906	908	907	901	902	904	903	913	914	916	915	917	918	920	919	925	926	928	927	921	922	924	923	933	934	936	935	937	938	940	939	945	946	948	947	941	942	944	943	949	950	952	951	169	170	171	172	173	953	954	956	955	957	958	960	959	961	962	964	963	965	966	968	967	178	179	180	181	182	183	184	185	186	187	188	189	190	191	192	193	194	195	196	197	198	199	200	</DataArray>
<DataArray type="Int32" Name="nodenumber" format="ascii">1	2	3	4	5	6	7	8	9	10	11	12	13	14	15	16	17	18	19	20	21	22	23	24	25	27	26	28	29	31	30	32	33	35	34	36	37	39	38	40	41	42	43	44	45	46	48	47	49	50	52	51	53	54	56	55	61	62	64	63	57	58	60	59	65	66	68	67	69	70	72	71	77	78	80	79	73	74	76	75	81	82	84	83	85	86	88	87	93	94	96	95	89	90	92	91	97	98	100	99	101	102	104	103	109	110	112	111	105	106	108	107	113	114	116	115	117	118	119	120	121	122	124	123	125	126	128	127	129	130	132	131	137	138	140	139	133	134	136	135	141	142	144	143	145	146	148	147	153	154	156	155	149	150	152	151	157	158	160	159	161	162	164	163	169	170	172	171	165	166	168	167	173	174	176	175	177	178	180	179	185	186	188	187	181	182	184	183	189	190	192	191	193	194	195	196	197	198	200	199	201	202	204	203	205	206	208	207	213	214	216	215	209	210	212	211	217	218	220	219	221	222	224	223	229	230	232	231	225	226	228	227	233	234	236	235	237	238	240	239	245	246	248	247	241	242	244	243	249	250	252	251	253	254	256	255	261	262	264	263	257	258	260	259	265	266	268	267	269	270	271	272	273	274	276	275	277	278	280	279	281	282	284	283	289	290	292	291	285	286	288	287	293	294	296	295	297	298	300	299	305	306	308	307	301	302	304	303	309	310	312	311	313	314	316	315	321	322	324	323	317	318	320	319	325	326	328	327	329	330	332	331	337	338	340	339	333	334	336	335	341	342	344	343	345	346	347	348	349	350	351	353	352	354	355	357	356	358	359	361	360	362	363	365	364	366	367	368	369	370	371	372	373	374	375	376	377	378	379	380	381	382	383	384	385	386	387	388	389	390	391	392	393	394	395	396	397	398	399	400	401	402	403	404	405	406	407	408	409	410	411	412	413	415	414	416	417	419	418	420	421	423	422	424	425	427	426	428	429	430	431	432	433	434	436	435	437	438	440	439	441	442	444	443	449	450	452	451	445	446	448	447	453	454	456	455	457	458	460	459	465	466	468	467	461	462	464	463	469	470	472	471	473	474	476	475	481	482	484	483	477	478	480	479	485	486	488	487	489	490	492	491	497	498	500	499	493	494	496	495	501	502	504	503	505	506	507	508	509	510	512	511	513	514	516	515	517	518	520	519	525	526	528	527	521	522	524	523	529	530	532	531	533	534	536	535	541	542	544	543	537	538	540	539	545	546	548	547	549	550	552	551	557	558	560	559	553	554	556	555	561	562	564	563	565	566	568	567	573	574	576	575	569	570	572	571	577	578	580	579	581	582	583	584	585	586	588	587	589	590	592	591	593	594	596	595	601	602	604	603	597	598	600	599	605	606	608	607	609	610	612	611	617	618	620	619	613	614	616	615	621	622	624	623	625	626	628	627	633	634	636	635	629	630	632	631	637	638	640	639	641	642	644	643	649	650	652	651	645	646	648	647	653	654	656	655	657	658	659	660	661	662	664	663	665	666	668	667	669	670	672	671	677	678	680	679	673	674	676	675	681	682	684	683	685	686	688	687	693	694	696	695	689	690	692	691	697	698	700	699	701	702	704	703	709	710	712	711	705	706	708	707	713	714	716	715	717	718	720	719	725	726	728	727	721	722	724	723	729	730	732	731	733	734	735	736	737	738	739	741	740	742	743	745	744	746	747	749	748	750	751	753	752	754	755	756	757	758	759	760	761	762	763	764	765	766	767	768	769	770	771	772	773	774	775	776	</DataArray>
<DataArray type="Int32" Name="layer" format="ascii">1	1	1	1	1	1	1	1	1	1	1	1	1	1	1	1	1	1	1	1	1	1	1	1	1	1	1	1	1	1	1	1	1	1	1	1	1	1	1	1	1	1	1	1	1	1	1	1	1	1	1	1	1	1	1	1	1	1	1	1	1	1	1	1	1	1	1	1	1	1	1	1	1	1	1	1	1	1	1	1	1	1	1	1	1	1	1	1	1	1	1	1	1	1	1	1	1	1	1	1	1	1	1	1	1	1	1	1	1	1	1	1	1	1	1	1	1	1	1	1	1	1	1	1	1	1	1	1	1	1	1	1	1	1	1	1	1	1	1	1	1	1	1	1	1	1	1	1	1	1	1	1	1	1	1	1	1	1	1	1	1	1	1	1	1	1	1	1	1	1	1	1	1	1	1	1	1	1	1	1	1	1	1	1	1	1	1	1	1	1	1	1	1	1	1	1	1	1	1	1	1	1	1	1	1	1	1	1	1	1	1	1	1	1	1	1	1	1	1	1	1	1	1	1	1	1	1	1	1	1	1	1	1	1	1	1	1	1	1	1	1	1	1	1	1	1	1	1	1	1	1	1	1	1	1	1	1	1	1	1	1	1	1	1	1	1	1	1	1	1	1	1	1	1	1	1	1	1	1	1	1	1	1	1	1	1	1	1	1	1	1	1	1	1	1	1	1	1	1	1	1	1	1	1	1	1	1	1	1	1	1	1	1	1	1	1	1	1	1	1	1	1	1	1	1	1	1	1	1	1	1	1	1	1	1	1	1	1	1	1	1	1	1	1	1	1	1	1	1	1	1	1	1	1	1	1	1	1	1	1	1	1	1	1	1	1	1	1	1	1	1	1	1	1	1	1	1	1	1	1	1	1	1	1	1	1	1	1	2	2	2	2	2	2	2	2	2	2	2	2	2	2	2	2	2	2	2	2	2	2	2	2	2	2	2	2	2	2	2	2	2	2	2	2	2	2	2	2	2	2	2	2	2	2	2	2	2	2	2	2	2	2	2	2	2	2	2	2	2	2	2	2	2	2	2	2	2	2	2	2	2	2	2	2	2	2	2	2	2	2	2	2	2	2	2	2	2	2	2	2	2	2	2	2	2	2	2	2	2	2	2	2	2	2	2	2	2	2	2	2	2	2	2	2	2	2	2	2	2	2	2	2	2	2	2	2	2	2	2	2	2	2	2	2	2	2	2	2	2	2	2	2	2	2	2	2	2	2	2	2	2	2	2	2	2	2	2	2	2	2	2	2	2	2	2	2	2	2	2	2	2	2	2	2	2	2	2	2	2	2	2	2	2	2	2	2	2	2	2	2	2	2	2	2	2	2	2	2	2	2	2	2	2	2	2	2	2	2	2	2	2	2	2	2	2	2	2	2	2	2	2	2	2	2	2	2	2	2	2	2	2	2	2	2	2	2	2	2	2	2	2	2	2	2	2	2	2	2	2	2	2	2	2	2	2	2	2	2	2	2	2	2	2	2	2	2	2	2	2	2	2	2	2	2	2	2	2	2	2	2	2	2	2	2	2	2	2	2	2	2	2	2	2	2	2	2	2	2	2	2	2	2	2	2	2	2	2	2	2	2	2	2	2	2	2	2	2	2	2	2	2	2	2	2	2	2	2	2	2	2	2	2	2	2	2	2	2	2	2	2	2	2	2	2	2	2	2	2	2	2	2	2	2	2	2	2	2	2	2	2	2	2	2	2	2	2	2	2	2	2	2	2	2	2	2	2	2	2	2	2	2	2	2	2	2	2	</DataArray>
<DataArray type="Int32" Name="row" format="ascii">1	1	1	1	1	1	1	1	1	1	2	2	2	2	2	2	2	2	2	2	3	3	3	3	3	3	3	3	3	3	3	3	3	3	3	3	3	3	3	3	3	3	4	4	4	4	4	4	4	4	4	4	4	4	4	4	4	4	4	4	4	4	4	4	4	4	4	4	4	4	4	4	4	4	4	4	4	4	4	4	4	4	4	4	4	4	4	4	4	4	4	4	4	4	4	4	4	4	4	4	4	4	4	4	4	4	4	4	4	4	4	4	4	4	4	4	4	4	5	5	5	5	5	5	5	5	5	5	5	5	5	5	5	5	5	5	5	5	5	5	5	5	5	5	5	5	5	5	5	5	5	5	5	5	5	5	5	5	5	5	5	5	5	5	5	5	5	5	5	5	5	5	5	5	5	5	5	5	5	5	5	5	5	5	5	5	5	5	5	5	5	5	5	5	6	6	6	6	6	6	6	6	6	6	6	6	6	6	6	6	6	6	6	6	6	6	6	6	6	6	6	6	6	6	6	6	6	6	6	6	6	6	6	6	6	6	6	6	6	6	6	6	6	6	6	6	6	6	6	6	6	6	6	6	6	6	6	6	6	6	6	6	6	6	6	6	6	6	6	6	7	7	7	7	7	7	7	7	7	7	7	7	7	7	7	7	7	7	7	7	7	7	7	7	7	7	7	7	7	7	7	7	7	7	7	7	7	7	7	7	7	7	7	7	7	7	7	7	7	7	7	7	7	7	7	7	7	7	7	7	7	7	7	7	7	7	7	7	7	7	7	7	7	7	7	7	8	8	8	8	8	8	8	8	8	8	8	8	8	8	8	8	8	8	8	8	8	8	9	9	9	9	9	9	9	9	9	9	10	10	10	10	10	10	10	10	10	10	1	1	1	1	1	1	1	1	1	1	2	2	2	2	2	2	2	2	2	2	3	3	3	3	3	3	3	3	3	3	3	3	3	3	3	3	3	3	3	3	3	3	4	4	4	4	4	4	4	4	4	4	4	4	4	4	4	4	4	4	4	4	4	4	4	4	4	4	4	4	4	4	4	4	4	4	4	4	4	4	4	4	4	4	4	4	4	4	4	4	4	4	4	4	4	4	4	4	4	4	4	4	4	4	4	4	4	4	4	4	4	4	4	4	4	4	4	4	5	5	5	5	5	5	5	5	5	5	5	5	5	5	5	5	5	5	5	5	5	5	5	5	5	5	5	5	5	5	5	5	5	5	5	5	5	5	5	5	5	5	5	5	5	5	5	5	5	5	5	5	5	5	5	5	5	5	5	5	5	5	5	5	5	5	5	5	5	5	5	5	5	5	5	5	6	6	6	6	6	6	6	6	6	6	6	6	6	6	6	6	6	6	6	6	6	6	6	6	6	6	6	6	6	6	6	6	6	6	6	6	6	6	6	6	6	6	6	6	6	6	6	6	6	6	6	6	6	6	6	6	6	6	6	6	6	6	6	6	6	6	6	6	6	6	6	6	6	6	6	6	7	7	7	7	7	7	7	7	7	7	7	7	7	7	7	7	7	7	7	7	7	7	7	7	7	7	7	7	7	7	7	7	7	7	7	7	7	7	7	7	7	7	7	7	7	7	7	7	7	7	7	7	7	7	7	7	7	7	7	7	7	7	7	7	7	7	7	7	7	7	7	7	7	7	7	7	8	8	8	8	8	8	8	8	8	8	8	8	8	8	8	8	8	8	8	8	8	8	9	9	9	9	9	9	9	9	9	9	10	10	10	10	10	10	10	10	10	10	</DataArray>
<DataArray type="Int32" Name="col" format="ascii">1	2	3	4	5	6	7	8	9	10	1	2	3	4	5	6	7	8	9	10	1	2	3	4	4	4	4	5	5	5	5	6	6	6	6	7	7	7	7	8	9	10	1	2	3	3	3	3	4	4	4	4	4	4	4	4	4	4	4	4	4	4	4	4	5	5	5	5	5	5	5	5	5	5	5	5	5	5	5	5	6	6	6	6	6	6	6	6	6	6	6	6	6	6	6	6	7	7	7	7	7	7	7	7	7	7	7	7	7	7	7	7	8	8	8	8	9	10	1	2	3	3	3	3	4	4	4	4	4	4	4	4	4	4	4	4	4	4	4	4	5	5	5	5	5	5	5	5	5	5	5	5	5	5	5	5	6	6	6	6	6	6	6	6	6	6	6	6	6	6	6	6	7	7	7	7	7	7	7	7	7	7	7	7	7	7	7	7	8	8	8	8	9	10	1	2	3	3	3	3	4	4	4	4	4	4	4	4	4	4	4	4	4	4	4	4	5	5	5	5	5	5	5	5	5	5	5	5	5	5	5	5	6	6	6	6	6	6	6	6	6	6	6	6	6	6	6	6	7	7	7	7	7	7	7	7	7	7	7	7	7	7	7	7	8	8	8	8	9	10	1	2	3	3	3	3	4	4	4	4	4	4	4	4	4	4	4	4	4	4	4	4	5	5	5	5	5	5	5	5	5	5	5	5	5	5	5	5	6	6	6	6	6	6	6	6	6	6	6	6	6	6	6	6	7	7	7	7	7	7	7	7	7	7	7	7	7	7	7	7	8	8	8	8	9	10	1	2	3	4	4	4	4	5	5	5	5	6	6	6	6	7	7	7	7	8	9	10	1	2	3	4	5	6	7	8	9	10	1	2	3	4	5	6	7	8	9	10	1	2	3	4	5	6	7	8	9	10	1	2	3	4	5	6	7	8	9	10	1	2	3	4	4	4	4	5	5	5	5	6	6	6	6	7	7	7	7	8	9	10	1	2	3	3	3	3	4	4	4	4	4	4	4	4	4	4	4	4	4	4	4	4	5	5	5	5	5	5	5	5	5	5	5	5	5	5	5	5	6	6	6	6	6	6	6	6	6	6	6	6	6	6	6	6	7	7	7	7	7	7	7	7	7	7	7	7	7	7	7	7	8	8	8	8	9	10	1	2	3	3	3	3	4	4	4	4	4	4	4	4	4	4	4	4	4	4	4	4	5	5	5	5	5	5	5	5	5	5	5	5	5	5	5	5	6	6	6	6	6	6	6	6	6	6	6	6	6	6	6	6	7	7	7	7	7	7	7	7	7	7	7	7	7	7	7	7	8	8	8	8	9	10	1	2	3	3	3	3	4	4	4	4	4	4	4	4	4	4	4	4	4	4	4	4	5	5	5	5	5	5	5	5	5	5	5	5	5	5	5	5	6	6	6	6	6	6	6	6	6	6	6	6	6	6	6	6	7	7	7	7	7	7	7	7	7	7	7	7	7	7	7	7	8	8	8	8	9	10	1	2	3	3	3	3	4	4	4	4	4	4	4	4	4	4	4	4	4	4	4	4	5	5	5	5	5	5	5	5	5	5	5	5	5	5	5	5	6	6	6	6	6	6	6	6	6	6	6	6	6	6	6	6	7	7	7	7	7	7	7	7	7	7	7	7	7	7	7	7	8	8	8	8	9	10	1	2	3	4	4	4	4	5	5	5	5	6	6	6	6	7	7	7	7	8	9	10	1	2	3	4	5	6	7	8	9	10	1	2	3	4	5	6	7	8	9	10	</DataArray>
<DataArray type="Int32" Name="vtkid" format="ascii">0	1	2	3	4	5	6	7	8	9	10	11	12	13	14	15	16	17	18	19	20	21	22	23	24	25	26	27	28	29	30	31	32	33	34	35	36	37	38	39	40	41	42	43	44	45	46	47	48	49	50	51	52	53	54	55	56	57	58	59	60	61	62	63	64	65	66	67	68	69	70	71	72	73	74	75	76	77	78	79	80	81	82	83	84	85	86	87	88	89	90	91	92	93	94	95	96	97	98	99	100	101	102	103	104	105	106	107	108	109	110	111	112	113	114	115	116	117	118	119	120	121	122	123	124	125	126	127	128	129	130	131	132	133	134	135	136	137	138	139	140	141	142	143	144	145	146	147	148	149	150	151	152	153	154	155	156	157	158	159	160	161	162	163	164	165	166	167	168	169	170	171	172	173	174	175	176	177	178	179	180	181	182	183	184	185	186	187	188	189	190	191	192	193	194	195	196	197	198	199	200	201	202	203	204	205	206	207	208	209	210	211	212	213	214	215	216	217	218	219	220	221	222	223	224	225	226	227	228	229	230	231	232	233	234	235	236	237	238	239	240	241	242	243	244	245	246	247	248	249	250	251	252	253	254	255	256	257	258	259	260	261	262	263	264	265	266	267	268	269	270	271	272	273	274	275	276	277	278	279	280	281	282	283	284	285	286	287	288	289	290	291	292	293	294	295	296	297	298	299	300	301	302	303	304	305	306	307	308	309	310	311	312	313	314	315	316	317	318	319	320	321	322	323	324	325	326	327	328	329	330	331	332	333	334	335	336	337	338	339	340	341	342	343	344	345	346	347	348	349	350	351	352	353	354	355	356	357	358	359	360	361	362	363	364	365	366	367	368	369	370	371	372	373	374	375	376	377	378	379	380	381	382	383	384	385	386	387	388	389	390	391	392	393	394	395	396	397	398	399	400	401	402	403	404	405	406	407	408	409	410	411	412	413	414	415	416	417	418	419	420	421	422	423	424	425	426	427	428	429	430	431	432	433	434	435	436	437	438	439	440	441	442	443	444	445	446	447	448	449	450	451	452	453	454	455	456	457	458	459	460	461	462	463	464	465	466	467	468	469	470	471	472	473	474	475	476	477	478	479	480	481	482	483	484	485	486	487	488	489	490	491	492	493	494	495	496	497	498	499	500	501	502	503	504	505	506	507	508	509	510	511	512	513	514	515	516	517	518	519	520	521	522	523	524	525	526	527	528	529	530	531	532	533	534	535	536	537	538	539	540	541	542	543	544	545	546	547	548	549	550	551	552	553	554	555	556	557	558	559	560	561	562	563	564	565	566	567	568	569	570	571	572	573	574	575	576	577	578	579	580	581	582	583	584	585	586	587	588	589	590	591	592	593	594	595	596	597	598	599	600	601	602	603	604	605	606	607	608	609	610	611	612	613	614	615	616	617	618	619	620	621	622	623	624	625	626	627	628	629	630	631	632	633	634	635	636	637	638	639	640	641	642	643	644	645	646	647	648	649	650	651	652	653	654	655	656	657	658	659	660	661	662	663	664	665	666	667	668	669	670	671	672	673	674	675	676	677	678	679	680	681	682	683	684	685	686	687	688	689	690	691	692	693	694	695	696	697	698	699	700	701	702	703	704	705	706	707	708	709	710	711	712	713	714	715	716	717	718	719	720	721	722	723	724	725	726	727	728	729	730	731	732	733	734	735	736	737	738	739	740	741	742	743	744	745	746	747	748	749	750	751	752	753	754	755	756	757	758	759	760	761	762	763	764	765	766	767	768	769	770	771	772	773	774	775	</DataArray>
<DataArray type="Float32" Name="top" format="ascii">100	100	100	100	100	100	100	100	100	100	100	100	100	100	100	100	100	100	100	100	100	100	100	100	100	100	100	100	100	100	100	100	100	100	100	100	100	100	100	100	100	100	100	100	100	100	100	100	100	100	100	100	100	100	100	100	100	100	100	100	100	100	100	100	100	100	100	100	100	100	100	100	100	100	100	100	100	100	100	100	100	100	100	100	100	100	100	100	100	100	100	100	100	100	100	100	100	100	100	100	100	100	100	100	100	100	100	100	100	100	100	100	100	100	100	100	100	100	100	100	100	100	100	100	100	100	100	100	100	100	100	100	100	100	100	100	100	100	100	100	100	100	100	100	100	100	100	100	100	100	100	100	100	100	100	100	100	100	100	100	100	100	100	100	100	100	100	100	100	100	100	100	100	100	100	100	100	100	100	100	100	100	100	100	100	100	100	100	100	100	100	100	100	100	100	100	100	100	100	100	100	100	100	100	100	100	100	100	100	100	100	100	100	100	100	100	100	100	100	100	100	100	100	100	100	100	100	100	100	100	100	100	100	100	100	100	100	100	100	100	100	100	100	100	100	100	100	100	100	100	100	100	100	100	100	100	100	100	100	100	100	100	100	100	100	100	100	100	100	100	100	100	100	100	100	100	100	100	100	100	100	100	100	100	100	100	100	100	100	100	100	100	100	100	100	100	100	100	100	100	100	100	100	100	100	100	100	100	100	100	100	100	100	100	100	100	100	100	100	100	100	100	100	100	100	100	100	100	100	100	100	100	100	100	100	100	100	100	100	100	100	100	100	100	100	100	100	100	100	100	100	100	100	100	100	100	100	100	100	100	100	100	100	100	100	100	100	100	100	100	100	100	100	100	100	100	100	100	100	100	100	100	100	100	100	100	100	100	50	50	50	50	50	50	50	50	50	50	50	50	50	50	50	50	50	50	50	50	50	50	50	50	50	50	50	50	50	50	50	50	50	50	50	50	50	50	50	50	50	50	50	50	50	50	50	50	50	50	50	50	50	50	50	50	50	50	50	50	50	50	50	50	50	50	50	50	50	50	50	50	50	50	50	50	50	50	50	50	50	50	50	50	50	50	50	50	50	50	50	50	50	50	50	50	50	50	50	50	50	50	50	50	50	50	50	50	50	50	50	50	50	50	50	50	50	50	50	50	50	50	50	50	50	50	50	50	50	50	50	50	50	50	50	50	50	50	50	50	50	50	50	50	50	50	50	50	50	50	50	50	50	50	50	50	50	50	50	50	50	50	50	50	50	50	50	50	50	50	50	50	50	50	50	50	50	50	50	50	50	50	50	50	50	50	50	50	50	50	50	50	50	50	50	50	50	50	50	50	50	50	50	50	50	50	50	50	50	50	50	50	50	50	50	50	50	50	50	50	50	50	50	50	50	50	50	50	50	50	50	50	50	50	50	50	50	50	50	50	50	50	50	50	50	50	50	50	50	50	50	50	50	50	50	50	50	50	50	50	50	50	50	50	50	50	50	50	50	50	50	50	50	50	50	50	50	50	50	50	50	50	50	50	50	50	50	50	50	50	50	50	50	50	50	50	50	50	50	50	50	50	50	50	50	50	50	50	50	50	50	50	50	50	50	50	50	50	50	50	50	50	50	50	50	50	50	50	50	50	50	50	50	50	50	50	50	50	50	50	50	50	50	50	50	50	50	50	50	50	50	50	50	50	50	50	50	50	50	50	50	50	50	50	50	50	50	50	50	50	50	50	50	50	50	50	50	50	50	50	50	50	50	50	50	50	50	50	</DataArray>
<DataArray type="Float32" Name="bottom" format="ascii">50	50	50	50	50	50	50	50	50	50	50	50	50	50	50	50	50	50	50	50	50	50	50	50	50	50	50	50	50	50	50	50	50	50	50	50	50	50	50	50	50	50	50	50	50	50	50	50	50	50	50	50	50	50	50	50	50	50	50	50	50	50	50	50	50	50	50	50	50	50	50	50	50	50	50	50	50	50	50	50	50	50	50	50	50	50	50	50	50	50	50	50	50	50	50	50	50	50	50	50	50	50	50	50	50	50	50	50	50	50	50	50	50	50	50	50	50	50	50	50	50	50	50	50	50	50	50	50	50	50	50	50	50	50	50	50	50	50	50	50	50	50	50	50	50	50	50	50	50	50	50	50	50	50	50	50	50	50	50	50	50	50	50	50	50	50	50	50	50	50	50	50	50	50	50	50	50	50	50	50	50	50	50	50	50	50	50	50	50	50	50	50	50	50	50	50	50	50	50	50	50	50	50	50	50	50	50	50	50	50	50	50	50	50	50	50	50	50	50	50	50	50	50	50	50	50	50	50	50	50	50	50	50	50	50	50	50	50	50	50	50	50	50	50	50	50	50	50	50	50	50	50	50	50	50	50	50	50	50	50	50	50	50	50	50	50	50	50	50	50	50	50	50	50	50	50	50	50	50	50	50	50	50	50	50	50	50	50	50	50	50	50	50	50	50	50	50	50	50	50	50	50	50	50	50	50	50	50	50	50	50	50	50	50	50	50	50	50	50	50	50	50	50	50	50	50	50	50	50	50	50	50	50	50	50	50	50	50	50	50	50	50	50	50	50	50	50	50	50	50	50	50	50	50	50	50	50	50	50	50	50	50	50	50	50	50	50	50	50	50	50	50	50	50	50	50	50	50	50	50	50	50	50	50	50	50	50	50	0	0	0	0	0	0	0	0	0	0	0	0	0	0	0	0	0	0	0	0	0	0	0	0	0	0	0	0	0	0	0	0	0	0	0	0	0	0	0	0	0	0	0	0	0	0	0	0	0	0	0	0	0	0	0	0	0	0	0	0	0	0	0	0	0	0	0	0	0	0	0	0	0	0	0	0	0	0	0	0	0	0	0	0	0	0	0	0	0	0	0	0	0	0	0	0	0	0	0	0	0	0	0	0	0	0	0	0	0	0	0	0	0	0	0	0	0	0	0	0	0	0	0	0	0	0	0	0	0	0	0	0	0	0	0	0	0	0	0	0	0	0	0	0	0	0	0	0	0	0	0	0	0	0	0	0	0	0	0	0	0	0	0	0	0	0	0	0	0	0	0	0	0	0	0	0	0	0	0	0	0	0	0	0	0	0	0	0	0	0	0	0	0	0	0	0	0	0	0	0	0	0	0	0	0	0	0	0	0	0	0	0	0	0	0	0	0	0	0	0	0	0	0	0	0	0	0	0	0	0	0	0	0	0	0	0	0	0	0	0	0	0	0	0	0	0	0	0	0	0	0	0	0	0	0	0	0	0	0	0	0	0	0	0	0	0	0	0	0	0	0	0	0	0	0	0	0	0	0	0	0	0	0	0	0	0	0	0	0	0	0	0	0	0	0	0	0	0	0	0	0	0	0	0	0	0	0	0	0	0	0	0	0	0	0	0	0	0	0	0	0	0	0	0	0	0	0	0	0	0	0	0	0	0	0	0	0	0	0	0	0	0	0	0	0	0	0	0	0	0	0	0	0	0	0	0	0	0	0	0	0	0	0	0	0	0	0	0	0	0	0	0	0	0	0	0	0	0	0	0	0	0	0	0	0	0	0	0	</DataArray>